ITEM: TIMESTEP
5000000
ITEM: NUMBER OF ATOMS
1000
ITEM: BOX BOUNDS pp pp pp
0.0000000000000000e+00 2.8867500000000000e+01
0.0000000000000000e+00 2.8867500000000000e+01
-1.0000000000000000e+00 1.0000000000000000e+00
ITEM: ATOMS id type x y 
101 1 1.11833 0.409141 
386 1 0.794117 1.34846 
315 1 0.052811 0.571548 
747 2 1.94302 0.623136 
540 1 1.74337 1.48841 
442 1 2.71154 1.15261 
155 1 3.77333 0.762987 
779 2 3.86719 28.8234 
720 2 4.5799 0.620187 
257 1 6.03037 0.517931 
306 1 5.12445 1.22335 
757 2 6.95266 0.168022 
182 1 7.01539 1.03161 
470 1 7.96122 0.665331 
882 2 8.59024 1.18477 
355 1 9.4259 1.05741 
511 1 10.3815 0.578696 
722 2 11.1309 0.053616 
143 1 11.3841 0.983595 
561 1 12.7299 1.02926 
307 1 11.9959 0.111695 
914 2 13.551 0.957037 
145 1 14.1925 0.428576 
97 1 15.1045 0.924947 
800 2 15.0397 0.0693835 
583 1 15.9275 0.196515 
889 2 15.916 1.12079 
333 1 16.733 0.994539 
156 1 17.5178 0.358548 
898 2 17.6802 1.1431 
74 1 18.5064 1.02429 
288 1 19.548 1.22786 
137 1 20.1205 0.31176 
973 2 19.2276 0.392968 
392 1 21.2524 0.33141 
337 1 20.644 1.14904 
36 1 21.8776 1.10397 
33 1 22.7533 0.61041 
463 1 23.7652 0.841154 
804 2 23.3822 28.7154 
544 1 24.2535 28.8002 
915 2 24.6458 0.717511 
224 1 25.5866 0.833928 
761 2 26.2363 0.222472 
193 1 26.7219 1.01674 
443 1 27.0988 0.0469427 
279 1 27.7525 0.966097 
911 2 28.7482 1.48739 
933 2 1.1241 2.26967 
391 1 0.286942 2.24235 
54 1 1.88364 2.57833 
959 2 2.49847 1.97799 
258 1 3.46116 1.84958 
774 2 3.68732 2.66307 
837 2 4.28236 1.4846 
52 1 2.84179 2.86091 
523 1 4.51973 2.28296 
806 2 5.37229 2.05647 
56 1 6.14363 1.55449 
759 2 6.97054 1.8768 
520 1 6.45892 2.5894 
542 1 7.85035 1.73593 
827 2 8.24248 2.5143 
22 1 7.41228 2.61988 
481 1 8.89264 1.96252 
181 1 9.90015 2.22797 
430 1 9.01156 2.9179 
687 2 10.3733 1.4569 
14 1 11.0342 1.95096 
296 1 11.5654 2.90644 
80 1 12.0816 1.82152 
128 1 12.5989 2.68517 
621 1 14.2201 1.48854 
16 1 13.253 1.88253 
501 1 14.1964 2.49915 
235 1 15.1821 1.9914 
821 2 15.8344 2.70767 
191 1 16.2382 1.92778 
309 1 17.2883 1.92144 
127 1 16.6712 2.81923 
301 1 18.3283 1.98971 
219 1 17.7775 2.88978 
353 1 18.8486 2.87435 
715 2 19.1415 2.07971 
397 1 20.0617 2.17557 
729 2 21.1462 1.83101 
113 1 20.9463 2.64811 
147 1 21.9828 2.11764 
196 1 22.9501 1.67502 
803 2 23.8992 1.75119 
134 1 23.76 2.70869 
857 2 24.5588 2.40427 
630 1 24.6942 1.49889 
836 2 25.528 1.64338 
398 1 25.4356 2.49356 
918 2 27.2082 1.72688 
247 1 26.3073 1.93776 
140 1 27.146 2.62326 
573 1 28.0187 1.9269 
929 2 28.3644 2.71303 
226 1 1.09274 3.25031 
668 2 0.588148 3.97379 
328 1 1.70006 4.16799 
663 2 2.10772 3.38752 
178 1 2.81556 4.00276 
949 2 3.48028 3.48541 
26 1 4.01958 4.27269 
447 1 4.31598 3.33294 
23 1 5.3571 2.95653 
6 1 5.11192 4.15686 
572 1 6.13289 3.70837 
786 2 7.00482 3.38645 
510 1 7.1199 4.30615 
324 1 8.03339 3.50884 
96 1 9.01472 3.95413 
413 1 9.91344 3.43573 
910 2 10.6639 2.79285 
41 1 10.95 3.65975 
697 2 12.2432 3.48149 
332 1 13.1224 3.64087 
300 1 11.7917 4.19431 
928 2 13.4191 2.83341 
206 1 14.1613 3.58543 
508 1 15.0856 3.02623 
791 2 15.083 3.86978 
225 1 15.9626 3.63137 
13 1 17.0892 3.72444 
832 2 16.5128 4.36134 
47 1 18.1799 3.78702 
846 2 19.0547 3.75942 
232 1 19.9539 3.24528 
678 2 20.0498 4.05831 
43 1 20.8837 3.96175 
825 2 22.8567 2.51974 
584 1 21.9832 3.09909 
357 1 22.9641 3.57677 
531 1 21.9137 4.13494 
897 2 23.8513 3.50781 
646 1 24.7133 3.26717 
509 1 25.7241 3.50886 
751 2 26.2876 2.82386 
588 1 26.8166 3.57584 
214 1 0.0598516 3.29989 
238 1 27.8247 3.45912 
221 1 0.816191 4.80688 
776 2 0.680137 5.64659 
982 2 28.7907 5.0957 
108 1 1.68248 5.29596 
864 2 2.38965 4.73615 
596 1 2.76793 5.47144 
685 2 3.29821 4.70598 
590 1 3.94879 5.29065 
923 2 4.81689 5.06144 
427 1 5.7111 5.13511 
876 2 6.32551 4.56579 
524 1 6.66631 5.38232 
978 2 7.45281 5.10057 
163 1 8.18344 4.58202 
877 2 8.35217 5.43652 
643 1 9.06149 5.04418 
527 1 9.87907 5.70094 
495 1 10.079 4.53309 
693 2 10.9798 4.52565 
199 1 10.8192 5.33635 
388 1 11.9417 5.24386 
292 1 12.8509 4.63137 
752 2 12.7989 5.54676 
979 2 13.682 4.28414 
345 1 13.7255 5.21634 
497 1 14.465 4.50335 
208 1 15.6095 4.57141 
29 1 14.7507 5.49159 
652 2 15.5493 5.44186 
216 1 16.4879 5.20171 
486 1 17.4355 4.74059 
833 2 18.3504 4.59315 
348 1 18.677 5.45683 
500 1 17.6362 5.77671 
239 1 19.3104 4.54215 
664 2 19.6109 5.32104 
341 1 20.3183 4.87403 
831 2 21.2882 4.74675 
578 1 21.0848 5.58287 
843 2 22.7485 4.64859 
405 1 22.2463 5.27644 
547 1 23.7076 4.4165 
320 1 23.3557 5.37774 
530 1 24.5332 5.11921 
874 2 24.5438 4.08119 
350 1 25.3098 4.51876 
740 2 25.3197 5.50652 
795 2 26.1569 4.22252 
428 1 26.1224 5.0546 
240 1 26.9816 4.61021 
51 1 27.0103 5.68364 
35 1 28.6046 4.24735 
756 2 27.7515 4.31065 
227 1 27.9015 5.20243 
865 2 0.374272 6.67384 
377 1 1.19124 6.36824 
149 1 28.7078 5.92484 
472 1 2.28449 6.44178 
858 2 1.66736 7.12684 
305 1 3.3218 6.28446 
841 2 4.13913 6.13249 
339 1 4.46846 6.88065 
469 1 4.92967 5.91473 
704 2 5.31309 6.73474 
117 1 5.93327 6.19443 
869 2 6.85055 6.24226 
423 1 6.1964 7.10762 
456 1 7.29142 7.01654 
157 1 7.68986 5.92515 
998 2 8.11022 6.67408 
349 1 8.81872 6.18984 
553 1 9.67338 6.77773 
632 1 8.78492 7.29426 
866 2 10.4476 6.34152 
89 1 11.2548 6.75152 
696 2 11.3441 5.89189 
164 1 12.2969 6.26017 
991 2 13.1214 7.13048 
369 1 13.3194 6.24968 
944 2 14.1897 6.12104 
110 1 13.9792 7.01658 
195 1 14.934 6.6175 
231 1 15.8505 6.21809 
784 2 15.7088 7.11464 
972 2 16.8027 6.028 
48 1 16.6924 6.8616 
809 2 17.588 6.63088 
563 1 18.4626 6.45262 
762 2 19.3205 6.24204 
382 1 20.1668 5.9907 
364 1 19.5049 7.09854 
834 2 20.3021 6.76869 
192 1 21.189 6.6379 
820 2 21.8717 6.0726 
603 1 22.8286 6.22257 
778 2 23.0378 7.01059 
188 1 22.1858 7.07017 
672 2 24.0873 5.86132 
505 1 23.7974 6.71441 
354 1 24.866 6.29424 
205 1 25.9307 6.16304 
714 2 25.5053 6.96076 
891 2 26.7195 6.48983 
493 1 27.4036 6.94173 
951 2 27.8644 6.16235 
554 1 28.4819 7.02659 
515 1 0.85092 7.38973 
996 2 0.915322 8.25709 
557 1 0.0673859 8.591 
168 1 2.74222 7.38078 
1 1 1.79367 7.97747 
727 2 2.5983 8.34477 
688 2 3.58378 7.09952 
477 1 3.48849 8.15153 
871 2 4.26 7.73578 
457 1 5.2 7.65005 
529 1 4.48169 8.5646 
376 1 6.10664 8.08515 
702 2 6.90564 7.73228 
146 1 7.06657 8.62705 
409 1 7.79435 7.88251 
267 1 8.84519 8.40121 
711 2 9.54051 7.78044 
492 1 10.4746 7.56129 
798 2 11.3946 7.62313 
945 2 10.8278 8.38357 
378 1 11.6328 8.45647 
304 1 12.2259 7.24407 
916 2 12.4046 8.08784 
104 1 13.2722 7.97007 
878 2 14.2175 7.8634 
331 1 15.0294 7.66895 
894 2 15.4339 8.41439 
40 1 16.1477 7.8054 
653 2 17.0147 7.80531 
956 2 18.6451 7.34258 
139 1 17.7871 7.44614 
91 1 18.8783 8.14469 
1000 2 17.9264 8.24927 
671 2 19.743 7.91363 
115 1 20.6163 7.61278 
730 2 21.441 7.52439 
421 1 21.3718 8.37937 
742 2 20.5024 8.57081 
814 2 22.1341 8.04951 
76 1 22.955 7.89785 
691 2 23.8768 7.58337 
284 1 24.2666 8.32158 
404 1 24.6967 7.40208 
666 2 25.1059 8.62801 
302 1 25.5849 7.90267 
600 1 26.5038 7.36558 
736 2 26.3693 8.29615 
946 2 27.2273 7.80278 
82 1 27.1635 8.64938 
950 2 0.0576596 7.77889 
612 1 28.0735 7.93725 
410 1 0.895879 9.14045 
317 1 1.90348 8.97388 
856 2 2.22975 9.79893 
570 1 2.92346 9.1845 
484 1 3.99541 9.48273 
467 1 3.11221 10.17 
863 2 5.33885 8.5203 
200 1 5.11397 9.44749 
478 1 6.14076 9.08764 
970 2 6.46655 9.89189 
619 1 7.27734 9.66478 
971 2 7.97391 8.69399 
327 1 8.43977 9.51086 
336 1 9.95617 8.54204 
805 2 9.22469 9.19734 
151 1 9.37338 10.0273 
851 2 10.2085 9.39078 
538 1 11.149 9.52911 
708 2 11.9347 9.24629 
144 1 12.7699 8.88181 
673 2 12.7751 9.69737 
860 2 13.7189 8.69078 
222 1 13.7155 9.57723 
461 1 14.5995 8.58178 
908 2 14.5599 9.4111 
50 1 15.4186 9.23472 
706 2 15.5365 10.1295 
488 1 17.0074 8.65348 
907 2 16.2208 8.78714 
167 1 16.4282 9.66463 
657 2 17.2164 9.4695 
326 1 17.9881 9.06871 
94 1 19.6192 8.79927 
962 2 18.7964 9.04961 
476 1 19.0622 9.8614 
974 2 19.8741 9.61747 
243 1 20.7568 9.37601 
919 2 21.5922 9.19989 
615 1 21.6465 10.0272 
466 1 22.446 8.84026 
760 2 22.4083 9.68826 
849 2 23.4196 8.62463 
270 1 23.3267 9.56061 
662 2 24.1285 9.29092 
537 1 25.0065 9.47987 
319 1 26.0579 9.9973 
638 1 25.918 8.97399 
829 2 26.6963 9.30417 
190 1 27.4885 9.61987 
859 2 28.0645 8.93828 
595 1 28.6389 9.74225 
888 2 0.512541 10.1895 
625 1 0.863533 10.9441 
593 1 1.36262 10.0103 
162 1 2.18746 10.6399 
835 2 1.62623 11.2767 
698 2 3.81758 10.7351 
158 1 3.09844 11.2535 
220 1 4.14341 11.4967 
418 1 4.57896 10.3459 
713 2 4.9299 11.1399 
85 1 5.67318 10.3107 
361 1 5.72481 11.2929 
394 1 6.84547 10.6186 
5 1 7.90671 10.558 
975 2 7.50011 11.3208 
462 1 8.47638 11.4483 
921 2 8.73636 10.5742 
253 1 9.46972 11.0581 
362 1 10.3612 10.2639 
842 2 11.2446 10.4783 
402 1 10.889 11.1918 
559 1 12.031 10.1035 
439 1 11.9897 11.177 
340 1 13.0055 10.5063 
767 2 13.8749 10.4289 
541 1 14.7418 10.342 
303 1 14.6254 11.341 
384 1 15.6141 10.9541 
656 2 16.4029 10.5053 
560 1 16.5346 11.4441 
474 1 17.2453 10.449 
790 2 18.2256 9.93164 
83 1 18.3016 10.7639 
133 1 17.4681 11.4816 
824 2 19.1366 10.7472 
624 1 19.9672 10.4884 
855 2 20.02 11.4064 
823 2 20.8209 10.2303 
15 1 20.8995 11.1132 
813 2 21.8093 10.8573 
365 1 22.5762 10.5722 
739 2 22.702 11.4776 
567 1 24.2082 10.1727 
754 2 23.4075 10.5917 
172 1 23.5439 11.4959 
682 2 24.3098 11.0105 
659 2 25.1481 10.3191 
212 1 25.4236 11.2426 
939 2 26.18 10.8369 
334 1 26.9663 10.4469 
482 1 26.6432 11.5683 
441 1 28.6886 10.8205 
782 2 27.9946 10.3319 
399 1 27.6952 11.1792 
875 2 0.361779 11.7402 
506 1 0.415121 12.6135 
491 1 1.1918 11.9847 
396 1 2.26417 11.9458 
737 2 3.28781 12.0636 
119 1 4.03506 12.5475 
480 1 2.82743 12.8902 
372 1 5.08258 12.0831 
818 2 5.98987 12.125 
534 1 6.65721 11.6275 
165 1 6.69393 12.7204 
351 1 7.73147 12.1226 
676 2 10.121 11.5798 
30 1 9.2791 12.0685 
880 2 9.91428 12.6015 
611 1 10.6535 12.2608 
985 2 11.3667 11.8827 
293 1 12.1459 12.2115 
765 2 12.7352 11.5789 
60 1 13.5724 11.3403 
297 1 13.2287 12.3571 
883 2 14.0641 12.0109 
684 2 15.7236 11.7979 
393 1 14.9832 12.2941 
318 1 16.196 12.5363 
948 2 16.9748 12.1733 
771 2 18.3401 11.7405 
637 1 18.0221 12.5147 
532 1 19.1815 11.5843 
546 1 19.059 12.6303 
123 1 20.1052 12.2523 
873 2 20.958 11.9588 
487 1 21.0189 12.8285 
198 1 21.7091 11.7077 
952 2 21.8321 12.5539 
597 1 22.7421 12.3564 
610 1 23.714 12.5109 
792 2 24.4075 11.9288 
799 2 24.4423 12.8921 
599 1 25.1555 12.3437 
890 2 25.8997 12.0158 
717 2 25.7334 12.9372 
45 1 26.6693 12.6257 
942 2 27.4049 11.9483 
120 1 28.3752 11.9989 
518 1 27.7579 12.7811 
995 2 28.5619 13.0179 
679 2 1.00946 13.2804 
291 1 0.292655 13.7065 
152 1 1.37331 14.0507 
690 2 0.64757 14.519 
68 1 1.76162 12.8426 
881 2 2.14725 13.6506 
654 2 3.55902 13.2612 
311 1 3.0153 13.9595 
789 2 4.85123 13.0338 
645 1 5.67422 12.942 
49 1 4.28519 13.657 
507 1 5.287 13.853 
781 2 6.13279 13.7475 
84 1 6.98986 13.671 
387 1 8.50795 12.7873 
758 2 7.66214 13.026 
419 1 8.19954 13.7558 
607 1 9.3871 13.315 
766 2 9.87128 14.0033 
248 1 10.4821 13.3513 
900 2 11.3264 13.8247 
114 1 11.5351 12.9969 
992 2 12.491 12.9717 
383 1 12.2343 13.8552 
249 1 14.1405 12.962 
11 1 13.247 13.4924 
658 2 14.074 13.8743 
785 2 15.4778 12.982 
371 1 14.9628 13.6669 
431 1 17.0544 13.0169 
437 1 16.1179 13.5626 
934 2 16.9988 13.9012 
189 1 17.8735 13.6007 
725 2 18.7121 13.4539 
316 1 18.5592 14.4601 
580 1 19.5272 13.7877 
852 2 19.3769 14.6375 
994 2 20.0399 13.1082 
211 1 20.5877 13.8178 
940 2 21.5114 13.6048 
395 1 22.2991 13.3056 
28 1 23.0113 14.0705 
732 2 22.1879 14.1733 
840 2 23.1785 13.208 
78 1 23.9192 13.5812 
909 2 24.5884 14.2036 
551 1 25.0344 13.5232 
73 1 26.1218 13.7234 
845 2 27.1404 13.3981 
111 1 27.0465 14.215 
57 1 27.9538 13.8216 
633 1 0.289213 15.417 
879 2 1.04314 15.821 
448 1 1.24311 15.0426 
587 1 2.2131 14.5366 
651 2 2.18699 15.4014 
674 2 3.76548 14.3858 
130 1 3.1196 15.0009 
31 1 4.20323 15.1372 
705 2 3.57145 15.6801 
853 2 4.71153 14.4244 
385 1 5.30947 15.0069 
912 2 4.82338 15.7374 
3 1 6.31754 14.5545 
112 1 6.16264 15.6337 
159 1 7.16912 15.3259 
828 2 7.16884 14.4983 
591 1 7.98615 14.7767 
438 1 9.05335 14.3376 
955 2 8.81277 15.1599 
412 1 9.77434 15.0548 
65 1 10.6272 14.3824 
989 2 10.7503 15.2635 
807 2 12.5242 14.6261 
169 1 11.5428 14.7704 
744 2 12.0695 15.5125 
436 1 12.9846 15.5001 
18 1 13.3961 14.5411 
920 2 13.9747 15.1662 
838 2 15.4628 14.3252 
446 1 14.6249 14.6532 
38 1 15.5748 15.1798 
917 2 14.8031 15.6812 
124 1 16.3994 14.5949 
70 1 16.5374 15.6458 
958 2 17.3126 15.4732 
381 1 17.4334 14.6248 
122 1 18.1463 15.3943 
37 1 19.2073 15.436 
373 1 21.3593 14.5439 
606 1 20.1934 14.9004 
867 2 20.8239 15.3757 
494 1 21.9711 15.328 
969 2 22.9367 14.9671 
420 1 22.9766 15.7782 
522 1 23.8724 14.6993 
649 1 24.0909 15.6979 
275 1 25.3647 14.6282 
981 2 24.6825 15.1232 
460 1 25.8338 15.5407 
896 2 26.334 14.6638 
648 1 26.8602 15.2738 
268 1 28.5663 14.6463 
701 2 27.7228 14.7251 
175 1 28.0513 15.6031 
568 1 0.666985 16.6082 
936 2 1.42365 17.127 
234 1 2.73474 16.0566 
628 1 1.79976 16.2585 
635 1 2.30768 17.0957 
260 1 3.36668 16.8397 
187 1 4.21137 16.3328 
21 1 5.35432 16.4481 
893 2 6.16484 16.6839 
379 1 6.9984 16.362 
294 1 8.20479 15.8305 
92 1 8.00258 16.875 
741 2 8.83997 16.6329 
558 1 9.27655 15.8913 
90 1 9.79602 16.9192 
183 1 10.3466 16.0334 
731 2 10.768 16.7471 
390 1 11.3583 16.0118 
453 1 12.429 16.3091 
977 2 12.4126 17.1658 
655 2 13.242 16.4301 
241 1 13.9486 16.0271 
830 2 14.1112 16.8943 
77 1 14.9391 16.5451 
726 2 15.6701 16.1007 
299 1 16.1756 16.8525 
694 2 16.8714 16.4709 
72 1 17.7921 16.3945 
887 2 18.6878 16.0581 
862 2 17.949 17.2182 
854 2 19.4901 16.4097 
450 1 18.7854 16.9259 
148 1 19.8326 17.1356 
490 1 20.2467 16.0635 
954 2 20.6229 16.82 
571 1 21.2707 16.1487 
150 1 21.5881 17.1967 
716 2 22.1402 16.2637 
406 1 22.7542 16.8233 
986 2 23.5813 16.4057 
905 2 25.0479 15.9641 
452 1 24.4494 16.6447 
548 1 25.5882 16.6246 
984 2 26.368 16.2762 
403 1 26.4998 17.3223 
499 1 27.2413 16.2773 
794 2 27.3877 17.1781 
810 2 28.767 16.1446 
514 1 28.1778 16.7065 
126 1 0.731564 17.5994 
700 2 0.9185 18.455 
273 1 1.71937 17.9809 
886 2 2.243 18.6431 
213 1 2.98766 17.942 
585 1 4.04578 18.3823 
967 2 3.83058 17.5345 
295 1 4.63008 17.3667 
129 1 5.15027 18.3317 
7 1 5.88567 17.4818 
556 1 7.09549 17.4769 
400 1 6.31998 18.4101 
976 2 7.19827 18.3161 
539 1 8.10501 18.2376 
850 2 8.93015 18.4595 
184 1 8.92018 17.6315 
816 2 9.77023 17.9086 
464 1 9.71775 18.7572 
186 1 10.6055 17.5953 
743 2 11.3609 17.9466 
440 1 10.7594 18.647 
454 1 11.5516 17.0471 
202 1 12.3632 18.0436 
246 1 13.336 17.2904 
433 1 13.7927 18.2998 
738 2 15.4395 17.3474 
346 1 14.567 17.6175 
444 1 15.512 18.2984 
999 2 14.6161 18.5581 
631 1 17.0856 17.3354 
746 2 16.3466 17.9393 
483 1 16.6147 18.7567 
750 2 17.3031 18.2649 
102 1 18.1783 18.0317 
931 2 19.0156 17.7664 
2 1 19.7541 18.2474 
329 1 20.7216 17.7465 
141 1 20.614 18.844 
171 1 21.642 18.3049 
594 1 22.5827 17.8598 
745 2 22.3615 18.7525 
289 1 23.6511 17.3519 
902 2 24.1114 18.1055 
479 1 23.306 18.7251 
990 2 25.579 17.5495 
425 1 24.7781 17.5651 
872 2 25.1201 18.3061 
269 1 26.014 18.2685 
215 1 27.0562 18.1483 
964 2 28.8406 17.2726 
283 1 0.00104162 18.3861 
207 1 28.0216 17.8286 
677 2 27.7842 18.6586 
132 1 0.552347 19.4056 
749 2 1.3114 19.9238 
209 1 1.54353 19.0711 
87 1 2.32415 19.7934 
63 1 3.02442 18.9985 
136 1 4.02125 19.4723 
783 2 3.2398 19.8252 
904 2 4.81782 19.1616 
201 1 4.90205 20.0485 
322 1 5.67384 19.3156 
960 2 6.50793 19.2745 
75 1 6.87241 20.0759 
335 1 7.3905 19.1076 
407 1 7.90761 20.0398 
434 1 8.63332 19.2686 
642 1 9.46807 19.8626 
735 2 8.68438 20.3495 
796 2 10.2161 19.4223 
142 1 11.0306 19.7816 
367 1 11.7638 18.8804 
217 1 12.0703 19.9068 
32 1 12.9578 18.888 
229 1 14.1082 19.2875 
179 1 13.1263 19.9748 
4 1 15.2579 19.2855 
913 2 16.1475 19.541 
598 1 17.064 19.6724 
321 1 15.7921 20.2953 
266 1 17.7727 18.9664 
116 1 17.9174 20.2821 
689 2 18.4512 19.5929 
535 1 18.9279 18.8556 
801 2 19.6881 19.1987 
61 1 19.2308 19.9988 
581 1 20.329 19.8498 
233 1 21.5558 19.33 
174 1 22.5115 19.7095 
517 1 24.3762 18.9506 
135 1 23.6345 19.9192 
753 2 24.6734 19.8212 
64 1 25.4329 19.2864 
695 2 26.3045 19.1041 
592 1 26.3818 20.0155 
9 1 27.22 19.2538 
770 2 28.8117 20.004 
458 1 28.3656 19.2926 
86 1 0.734076 20.5162 
718 2 1.28811 21.2677 
555 1 1.86488 20.6774 
244 1 2.91656 20.6178 
271 1 2.47673 21.6336 
46 1 3.93979 20.5271 
575 1 3.48995 21.487 
579 1 4.43741 21.4252 
780 2 5.21467 20.8511 
262 1 5.60327 21.5996 
121 1 5.90135 20.3647 
647 1 6.66167 21.1521 
870 2 7.50643 20.8336 
626 1 8.28766 21.1305 
173 1 9.31014 20.8862 
344 1 10.3596 20.5188 
95 1 11.1262 21.3172 
44 1 10.0832 21.5978 
733 2 11.4492 20.5579 
314 1 12.1822 21.0234 
255 1 13.2221 21.0537 
675 2 13.8426 20.4084 
549 1 14.289 21.2491 
185 1 14.6906 20.1728 
922 2 15.1541 20.9917 
468 1 16.0236 21.2731 
310 1 16.9004 20.7055 
325 1 16.9368 21.8315 
368 1 17.7845 21.2829 
822 2 18.6 21.8925 
416 1 18.805 21.0051 
8 1 19.8756 20.8242 
930 2 20.7369 20.6305 
617 1 21.1673 21.3174 
723 2 20.3308 21.5545 
298 1 21.6281 20.3548 
755 2 22.462 20.5285 
88 1 22.1826 21.3598 
957 2 22.9303 21.7201 
12 1 24.2979 20.7644 
204 1 23.2469 20.9359 
935 2 23.8552 21.5479 
589 1 25.3406 20.3397 
223 1 25.2452 21.3345 
988 2 26.0223 20.87 
577 1 26.9022 21.011 
67 1 27.7162 20.2446 
569 1 28.6448 20.8426 
710 2 27.7172 21.1969 
366 1 0.390762 21.8124 
811 2 0.817951 22.6375 
274 1 1.54705 23.0671 
605 1 28.8416 22.6916 
512 1 1.53038 22.0613 
719 2 2.23738 22.5035 
17 1 3.13225 22.5097 
817 2 3.97333 22.2205 
230 1 4.86227 22.4173 
812 2 5.66814 22.4586 
308 1 6.49816 22.2445 
475 1 7.49646 21.8334 
924 2 7.21464 22.6786 
533 1 8.07717 22.7859 
170 1 9.07506 21.9501 
360 1 10.0466 22.6556 
634 1 9.04899 23.0907 
932 2 10.8673 22.2485 
963 2 12.7338 21.7922 
237 1 11.821 22.1437 
445 1 12.7127 22.6553 
748 2 11.969 23.0251 
502 1 13.6254 22.0434 
665 2 14.4426 22.2183 
451 1 15.2128 21.8643 
281 1 14.9802 22.8978 
426 1 16.1012 22.3854 
27 1 17.0554 22.9819 
286 1 17.921 22.3896 
660 2 17.9985 23.1933 
25 1 19.4847 21.8773 
627 1 18.8584 22.8172 
552 1 19.8806 22.9087 
622 1 20.7942 22.3157 
903 2 20.7265 23.2413 
166 1 21.5746 23.0433 
926 2 21.6984 22.0423 
342 1 22.4273 22.4453 
100 1 23.5481 22.3801 
370 1 24.5524 22.1137 
703 2 25.4026 22.2545 
424 1 25.01 23.0221 
66 1 26.1684 21.8216 
259 1 27.238 21.9224 
103 1 26.0573 22.8502 
953 2 26.9323 22.7618 
203 1 28.1926 21.8933 
565 1 27.8269 22.8974 
422 1 0.581069 23.6359 
55 1 1.56811 24.1074 
59 1 2.4218 23.4376 
131 1 4.09799 23.1058 
768 2 3.2957 23.3276 
250 1 3.40346 24.2042 
519 1 5.2269 23.3853 
313 1 4.43168 24.1201 
576 1 5.63493 24.272 
536 1 6.19484 23.209 
769 2 6.48415 24.0176 
58 1 7.22572 23.5376 
263 1 8.29942 23.7901 
503 1 7.52689 24.5417 
81 1 9.32722 24.0866 
709 2 10.0278 23.508 
545 1 11.0715 23.0979 
363 1 10.6775 24.2333 
797 2 11.5772 23.7864 
39 1 12.4647 23.7932 
773 2 13.2365 23.3051 
586 1 13.9869 23.0491 
435 1 13.4171 24.1482 
734 2 14.2808 23.881 
338 1 15.1468 23.9178 
24 1 16.0357 23.3867 
987 2 16.6798 24.0005 
608 1 15.9849 24.502 
485 1 17.4672 23.9258 
641 1 18.5022 23.837 
997 2 19.3294 23.5517 
414 1 19.2306 24.6434 
272 1 20.0497 23.8909 
465 1 21.1045 23.9973 
669 2 20.276 24.7122 
242 1 22.5239 23.6028 
34 1 21.9765 24.4882 
582 1 23.2964 24.1951 
925 2 23.285 23.196 
280 1 24.1054 23.403 
707 2 24.1557 24.2576 
640 1 25.0702 24.173 
793 2 25.6548 23.5817 
160 1 26.0869 24.4069 
290 1 26.7977 23.6167 
53 1 27.8132 23.9524 
941 2 28.5646 23.4937 
670 2 0.765328 24.4836 
629 1 0.504913 25.3437 
176 1 2.46063 24.6014 
566 1 1.5633 25.1684 
254 1 2.46418 25.6824 
884 2 3.17749 25.1364 
71 1 4.04694 25.0713 
839 2 4.94162 24.8722 
358 1 4.77575 25.7759 
526 1 5.69812 25.3381 
604 1 6.53605 24.8853 
895 2 7.26049 25.4032 
449 1 8.10038 25.3518 
980 2 8.5409 24.6305 
961 2 8.71842 25.963 
847 2 9.97994 24.7705 
496 1 9.1606 25.1938 
550 1 10.0756 25.6034 
721 2 10.8139 25.0484 
525 1 11.1677 25.8571 
276 1 11.6147 24.7747 
614 1 12.6876 24.8318 
826 2 12.0559 25.6553 
105 1 12.9172 25.8365 
848 2 13.4632 25.1008 
161 1 14.0179 25.8777 
602 1 14.3091 24.7789 
787 2 15.223 24.8368 
618 1 15.0959 25.6369 
99 1 16.0972 25.5051 
680 2 16.9841 25.7066 
528 1 17.0085 24.8167 
650 1 18.0819 24.7948 
356 1 17.7784 25.9668 
429 1 18.7217 25.5216 
282 1 19.7441 25.556 
609 1 21.1023 25.0847 
764 2 20.5779 25.7203 
775 2 22.7178 24.8681 
613 1 22.2245 25.5977 
138 1 23.5328 25.1917 
125 1 24.5521 25.1221 
899 2 25.449 24.9964 
417 1 25.2813 25.8595 
62 1 27.0781 24.684 
252 1 26.2746 25.4301 
42 1 27.2864 25.6761 
411 1 28.7323 24.4621 
802 2 27.9175 24.8363 
236 1 28.3356 25.5617 
343 1 0.855032 26.5708 
868 2 0.0681273 26.2258 
459 1 0.0949356 27.2043 
993 2 1.52924 26.1076 
601 1 2.01974 26.9309 
885 2 2.80823 26.5509 
498 1 3.41447 26.01 
681 2 4.26068 26.4452 
256 1 3.65218 27.0371 
177 1 5.01391 26.837 
699 2 5.75312 26.2306 
927 2 4.48052 27.5344 
251 1 6.54699 25.9109 
906 2 6.82854 26.6926 
107 1 6.12781 27.0942 
564 1 7.52472 26.259 
278 1 8.41632 26.7597 
210 1 7.43067 27.307 
636 1 9.40408 26.4339 
772 2 9.08996 27.2375 
347 1 9.9637 27.2723 
763 2 10.4229 26.4368 
473 1 11.1858 26.8782 
616 1 12.144 26.4609 
861 2 12.0488 27.2312 
359 1 12.9435 27.1411 
966 2 13.5636 26.5459 
639 1 14.063 27.2743 
20 1 14.7899 26.5826 
686 2 15.6999 26.2973 
218 1 15.7005 27.1807 
118 1 16.5161 26.4525 
892 2 16.7095 27.3225 
245 1 17.5616 27.1 
330 1 18.5397 26.657 
728 2 19.3123 26.3149 
98 1 19.4035 27.211 
415 1 20.2461 26.5546 
93 1 21.2814 26.2091 
788 2 20.9566 27.0103 
938 2 22.3917 26.6134 
375 1 22.7788 27.3673 
180 1 21.746 27.2403 
10 1 23.1222 26.1328 
19 1 24.1542 26.0967 
844 2 23.5976 27.0081 
323 1 24.4434 27.0857 
947 2 25.2835 26.7704 
968 2 27.2532 26.5185 
261 1 26.3558 26.4964 
154 1 26.9889 27.337 
562 1 28.1381 26.5249 
69 1 1.11848 27.5623 
712 2 1.07396 28.4589 
521 1 0.183111 28.2498 
661 2 1.96304 27.8051 
644 1 1.95225 28.6621 
352 1 2.7473 27.6211 
277 1 2.99147 28.7984 
623 1 3.70801 28.0255 
228 1 4.69176 28.5702 
777 2 5.55679 28.7014 
504 1 5.38189 27.7982 
408 1 6.33444 28.4369 
724 2 6.66278 27.662 
389 1 7.38078 28.3207 
983 2 8.10434 28.7204 
374 1 8.38137 27.7873 
667 2 9.74076 0.103392 
312 1 8.8735 0.213196 
264 1 9.33661 28.1034 
808 2 10.7789 27.6025 
79 1 10.328 28.3651 
401 1 11.5059 28.0128 
153 1 12.5905 28.0873 
513 1 13.2577 0.0601685 
815 2 13.4097 27.843 
106 1 14.2335 28.2485 
901 2 14.8823 27.5087 
574 1 15.3894 28.1834 
683 2 16.7217 0.0635455 
489 1 16.4814 28.155 
197 1 18.4557 27.8204 
516 1 17.5104 28.185 
109 1 18.5051 28.8093 
471 1 19.5177 28.3294 
620 1 20.3372 27.6123 
937 2 20.6878 28.5207 
543 1 21.5374 28.246 
965 2 22.0314 0.0852804 
455 1 22.6235 28.3241 
432 1 23.6229 27.8861 
943 2 24.6263 28.0149 
194 1 25.2748 28.7233 
285 1 25.39 27.6349 
692 2 26.1678 27.3823 
265 1 26.3839 28.1853 
819 2 27.262 28.121 
287 1 28.0369 27.6431 
380 1 28.1263 28.7663 
