ITEM: TIMESTEP
1307
ITEM: NUMBER OF ATOMS
8192
ITEM: BOX BOUNDS xy xz yz pp pp pp
0.0000000000000000e+00 9.7602012985450386e+01 2.9279725503869999e-03
0.0000000000000000e+00 9.7599085012900005e+01 0.0000000000000000e+00
-3.8124642580000001e-01 3.8124642580000001e-01 0.0000000000000000e+00
ITEM: ATOMS id type x y 
1850 2     1.25475417014111     1.05777516119021 
556 2     2.47205795968747    0.704512652006004 
246 2     3.73281553332143    0.574291747063466 
876 2     4.96083660878522     0.28178823556735 
4661 1     6.86536745392231    0.817753418933364 
1549 1     7.82211076478453    0.841486780707717 
5202 2     8.78729655633284    0.288323497726218 
1109 1      9.9151425427084    0.617072081302994 
1203 1      10.868921841499      1.1152033705953 
1406 2     11.9330512771675    0.704054469908091 
5245 1     13.0073092043465      1.0963106698906 
1630 2     14.0858238780504    0.753296779753592 
1252 2     15.4974919266666    0.984807275835581 
4737 1     16.6716160718878    0.434614029761578 
8133 1     17.5393960683408    0.924851477266157 
6806 2     18.6012324273529     1.14849333132673 
3267 1      19.439382300899    0.416456195800787 
203 1     18.4889945640659   0.0430981109399211 
347 1     20.7616136034041     0.79044688307278 
292 2     21.9033125962586     1.01339563765369 
2337 1     23.5642309882273    0.563911921820459 
1213 1    0.454749324389932     1.85702943014847 
5879 1     2.18360751184152      1.7511674134139 
1946 2     3.29325645943606     1.78064010238728 
916 2     4.57004086109407     1.54165449176045 
4278 2     5.85550937358252     1.33244864119017 
4256 2     7.20683933870633     1.86450255671536 
4665 1     8.34445336511708     1.62215232463748 
3199 1     9.23558476792333     1.30009440848045 
2088 2     9.18196778550634      2.4263472291584 
6323 1      10.113583150214     1.69215750056901 
4783 1     11.1725024695892      2.0036980807156 
7608 2     12.2563727012132     1.92372973763383 
8164 2     13.5891753372262     2.04399185902305 
6225 1     14.6707729360229     1.68990337363035 
5406 2     15.6232356479588     2.36393579525047 
1324 2     16.6179042995312     1.54557662046541 
944 2     17.7573624634407      2.1035413115961 
1903 1     18.9999982950831     2.21257077025455 
2344 2     19.8437709291006     1.43826407539601 
4610 2     21.0113122923358     1.92747903982848 
1795 1     22.9627255296906       1.316964746908 
2366 2     22.2214704016505     2.34473614145738 
5515 1     24.0895160171656     1.36734102291222 
6100 2     23.4897656424272     2.29398544922126 
5884 2    0.215490022782108     2.92329025580432 
1286 2     1.38810386632043     2.46716617587769 
1255 1     1.94552471931333     3.38597972677235 
5367 1     2.60589526883078     2.65186252577198 
7454 2     4.01573133285566     2.83702399166927 
7937 1     5.08101229836746     2.48597462746722 
6612 2     5.19318059634434      3.5994100022453 
7370 2     6.15139519940469     2.59891215960167 
86 2     7.26481963266695     3.24252092044817 
1749 1     8.09899009960428     2.55257647637298 
1641 1     9.55307167745299     3.50529059821914 
5940 2     10.4033442484717     2.77339894193252 
3976 2     11.6408919548417     3.09572051937668 
5339 1     12.7986565490483     2.86095891907915 
6606 2     13.7865041538402     3.39140763310451 
6227 1      14.548374763475     2.62388621436831 
6915 1     15.0335992857555      3.4400077417308 
2375 1     16.7670548643989     2.65088027744607 
836 2     16.1337209834736     3.56765203900242 
4218 2     17.4088411962254     3.58260662907216 
3041 1      18.359022350792     2.98213904655732 
6887 1      19.303363947181     3.14305276508941 
5937 1     20.0698023318083     2.53970686914708 
6723 1     21.1697191477686     3.01906547352711 
5745 1     22.0172660984811     3.46170721450758 
4662 2     23.1100678838266     3.48434647887161 
5160 2     23.6949326474599     48.0019564252856 
7515 1     1.02369966717324     3.75092793840536 
5377 1   0.0259843539634358     3.97932575048965 
802 2     1.95930820339744     4.47375692270799 
1290 2     3.02443316425676      3.6844765662048 
6319 1     4.12107365133855     3.96821322026856 
966 2     4.82941309160341     4.84729982598197 
5716 2     6.09487072895341     4.76988147679482 
1803 1     6.29749619051186     3.71772139515834 
7027 1     7.21518034214238     4.36502195101317 
7506 2     8.47058020464301     3.63004511568356 
2613 1     9.32699791334429     4.47352483414981 
7122 2     10.5187792618576     4.03999404442305 
4935 1     11.5872699089409     4.22883406252423 
3630 2      12.639488920607     3.94279683481911 
4143 1      13.528195329135     4.57618376738664 
2187 1     14.4730380965049     4.22661176464608 
4411 1     15.4135904407506     4.40297092735783 
8046 2     16.5698700820421     4.79185407448635 
3507 1     17.7084850023126     4.66921100795052 
5568 2     18.6421054253123     4.03919672074227 
6982 2       20.26472872934     3.64634882401717 
743 1     19.5863124251431     4.57141659156352 
2303 1     20.5393614807337     4.69347797265436 
6183 1     21.3262596590759     4.13298894636138 
1508 2     22.4000431950697      4.5594729288186 
3205 1     23.6744369774622     4.43344700267816 
6316 2    0.618510127667053     4.87640680630099 
577 1     1.54009836660419     5.49304981676911 
1815 1     2.49099843087443     5.45090068293442 
6558 2     3.44840245427204     4.89295136395892 
5435 1     4.19782994174045     5.73439613878389 
7225 1     5.12885918088424     5.96161743812533 
977 1     6.06392084870562     5.86456784963929 
5062 2     7.15677679241596     5.52877201042867 
5676 2     8.26417800906193     4.87752246721548 
5818 2     9.26807157959697     5.73922464415661 
7923 1     10.1099028481667       5.049099691942 
6661 1      10.537656178941     5.90950274323551 
7541 1     11.0904557078139     5.06657151775011 
3103 1     11.5052216812498     5.95574188564799 
3714 2     12.2533163132014     5.14664921987473 
8151 1     13.2729194952923     5.52663475577396 
4184 2      14.392458241979     5.30151642127618 
4129 1     15.5318233493573     5.33456525710442 
2118 2     17.5140178798545     5.76514404299094 
7724 2      18.700505059861     5.32320732840619 
648 2     19.9847972194397     5.64033959283834 
8126 2     21.3669314025559     5.37686687554203 
1981 1     22.3982150847217     5.71775414751642 
7203 1     23.2482218029775     5.29641344208506 
7562 2     24.2356009328908     5.73462929049041 
7932 2       0.710671196774     6.19646388664783 
6480 2     1.99251466268017     6.52180636261531 
4812 2      3.2453109262853     6.23986206013982 
7364 2     4.38870186391209     6.85382441833071 
2084 2     5.70980698913027     6.96818995210538 
1335 1     6.73820268169807     6.54850313749471 
1083 1     8.16310905301917      6.0118255923953 
7097 1     7.63917550373886     6.84189582545063 
1188 2     8.75074649101354     6.97438964313647 
1708 2     9.98947272069808     6.84598312821675 
2735 1     11.1456250569322     6.82674768455515 
6958 2     12.4999989987849     6.45443139338552 
352 2     13.7914553294729     6.49726000076756 
3090 2     15.0623089170786     6.36574141618311 
6046 2     16.3100742718427     6.11931766580785 
3059 1     18.2189094473677       6.631482728726 
1706 2     17.1925942166442     7.05842587247582 
7295 1     19.1397388670907     6.32966361474938 
4257 1     19.9919927135532     6.87045364674752 
697 1     20.8106579144714     6.34019966272883 
390 2     21.8464344718406     6.69116443920623 
350 2     23.1793449488825     6.50793023669639 
1015 1      24.240220622064     6.82820061938271 
5694 2    0.996668059374957     7.44257713662039 
2649 1     2.13099806474854      7.6049215505604 
6067 1     3.04643819638142     7.29825678206633 
3289 1     3.85380692886558      7.8293970620772 
7766 2     4.94680212353749     8.04573436438161 
225 1     6.04652272003564     8.04518570959416 
4547 1     6.86916068254824     7.49754535457065 
7160 2     7.95858105359041     7.95936821432886 
986 2     9.42445348386201      8.1337497272368 
3284 2     10.6996267215631     7.87088073500573 
3278 2     11.9603881833479     7.62067168180539 
3900 2     13.2082759995916      7.6432292670758 
1300 2     14.5581951233852     7.54849826127999 
7462 2     15.8468909461154     7.35964782268936 
5914 2     16.7053700463202     8.24797416103183 
72 2     17.9641943649423     8.11253520332622 
2478 2     19.0191397959946      7.4103295407565 
3652 2      20.132948825939     8.11251935645477 
927 1      20.880483286193     7.30224020662155 
3866 2     21.6659204258892     8.07028137056875 
7243 1     22.6189572129817      7.4665347566053 
7664 2     23.6707112465196     7.83292542291117 
4397 1    0.556321553133283       8.451347404363 
3474 2     1.65218510218599     8.59115009171278 
6392 2     2.91538231347916     8.43269552741585 
1147 1     3.28734073833531      9.4471743612789 
5585 1     4.03340672394142     8.80550801086318 
3255 1     4.95523611622786     9.13335909839919 
1576 2     6.06429361229828     9.17828993076944 
6369 1     6.91631343462535     8.46888307724259 
7099 1     7.66292056515411        9.02743740333 
457 1      8.6289649588721     8.90000035839113 
3503 1     10.3875230742211     8.91719942203642 
8078 2     11.5569075486213     8.82183136116603 
2625 1     12.7465442640063     8.75538840376045 
5292 2     13.9593958693318     8.65617674659967 
3300 2     15.3239871800958      8.6242977360814 
7917 1     16.2679296502351     9.21440329172514 
939 1     17.2772458816826     9.20849542541954 
6822 2     18.3501804295883     9.34434350263753 
2327 1     19.0645276750641     8.50018190525554 
6708 2     19.6513656836694     9.43935978572172 
5364 2     20.9406606319832     9.10786354671884 
7059 1     22.7402786906647     8.41984834489835 
2378 2     22.2216498765682     9.36755900147794 
4303 1     23.4423983082737     9.08812128880975 
4334 2    0.838352929647433     9.56884335728203 
7090 2    0.278745978862071     10.7114901977478 
6551 1     1.38009691000267     10.5364988004442 
1402 2     2.21025377256837     9.73970882262222 
5023 1      3.1970163386233     10.4010600716164 
7220 2     4.24561693036882     9.99570399519364 
2223 1     5.34185527117065     10.0260865058361 
3419 1     7.02199308624599     9.73642336211965 
2280 2     6.26147615368525     10.6039622860765 
605 1     7.34883093112802     10.6593006748005 
4704 2     8.20509812263259     9.96568937301499 
3004 2     9.52535424706443     9.58568006221998 
3699 1     9.07036915647307     10.6057482496729 
2538 2     10.8761195274308     9.95420638514446 
7401 1     10.0408189616014     10.6592958904896 
5900 2     12.2197008648709     9.87191794335751 
5479 1      14.621950977038     9.55044935855289 
1626 2      13.481267494646     9.80009339349973 
1142 2     14.4270746435738     10.6816646247479 
2624 2     15.6087823772187     10.0587154324676 
4599 1      16.761744907595     10.0321988516875 
5288 2     17.7735396064369     10.4968913101722 
5403 1     18.8779445807444     10.3126609581828 
3501 1     20.5060120179968     10.1128131675483 
7469 1     19.7436924643038     10.6767282064094 
1217 1     21.4618391734817     10.1517017730282 
968 2       23.18671988234     10.1879886945335 
5265 1     24.2393369736851     9.85788893952296 
6016 2     1.16932009820256     11.6725400922033 
5440 2     2.34336236792994      11.049543029945 
2734 2      3.2450044504103     11.9588522334175 
7919 1     3.89520309673469     11.0642539381274 
5458 2     5.03577575271349     11.1081821671119 
7903 1     5.96712868156584     11.7191457324498 
3045 1     6.93788478514393     11.5501925211747 
922 2     8.18963761921376     11.3508767353687 
1470 2     9.42900563389057     11.6290440041384 
2142 2     10.7304267988692     11.5583116841185 
6455 1      11.613093584968     10.8086488475027 
2450 2     11.9908640628975     11.8455770127842 
2410 2     12.9236579707861     10.9537690373824 
2025 1     13.8346815575437     11.6016952511916 
4603 1     15.4791892421112     11.1284677942517 
5260 2     16.6196297944686      11.119857821009 
7301 1     17.6484425602446     11.6235395210012 
5730 2     18.7608731759109     11.4439134215941 
5733 1     19.8647980989063     11.6157640036232 
4094 2     20.8674627240337     11.1407971875382 
2631 1     21.6178281839423     11.9653435079084 
6832 2     22.1752807568898      10.986075021196 
6233 1     23.2389030594683     11.3051011558045 
4900 2     24.2986218123566     10.9368383663232 
7259 1    0.523914208892617     12.9540786692813 
1145 1     2.17414525019124     12.1335718079622 
1661 1     1.47249569138736     12.7555073908588 
3930 2     2.61970264498407     13.1455096210478 
3627 1     4.33715818073733     11.9535586805446 
2622 2     3.96953920138917     13.0276904911188 
3152 2     5.22446564592199     12.5846637872179 
1238 2     6.54186875371799     12.6899768453273 
1719 1     7.58480250290096     12.2592053103408 
2720 2     8.62434443635148     12.6929803278185 
7962 2     9.98119976339894     12.7317652529461 
7076 2     11.2367133882938     12.8444953401878 
7315 1     13.0452729157054      12.094488787724 
2588 2     13.8761818349784     12.8367913282376 
1158 2     14.8328407058182     12.0169138757101 
1282 2     15.6176029265689     13.0177552048001 
645 1     15.9436529171443     11.9768702056983 
4250 2     16.9235058924543     12.4701752088538 
2935 1      18.195660641012     12.4591767316242 
7619 1     19.3770091463927     12.4314092019678 
1550 2     20.6111582433132     12.4337841262998 
5389 1     21.7386412260496     12.9399406264639 
238 2      22.678701627488     12.2657975278517 
945 1     23.9187023817677     11.9857616437075 
5055 1      23.583539510981     12.8784605515376 
8016 2     1.30800240518429     13.8220339784361 
4883 1     2.34664518836949     14.2004178614144 
3796 2     3.48358942502943     14.2007494547897 
1603 1     4.80700370646186     13.7620215220096 
3069 1     5.78200064792871     13.5363581439145 
6566 2     6.78732056407564     14.0415584295524 
2517 1      7.5428747962779     13.2082817779501 
2630 2     8.26859384318909     14.0100849741058 
4759 1     9.31290119399921     13.6162114668459 
6226 2     10.4354041164923     13.9349081945728 
8090 2     11.7049371422536     14.0264068981064 
1726 2     12.5793766904665     13.0850648613348 
539 1     12.8021139987984     14.1763835188135 
4083 1     13.7140657825288     13.9258795048547 
6253 1     14.6866531415542     13.6181813841611 
310 2     15.6785829987605     14.2937167634678 
1867 1     16.5588494974159     13.5978153337759 
3974 2     17.6499725189433     13.5015991775471 
6108 2     18.8669365104725     13.3879768707713 
555 1     19.9523555956835     13.3241345241543 
7465 1     20.8854750773644     13.5010812066418 
1557 1     21.7430746548847     13.9140052117744 
3432 2     22.7812042914329     13.6120549086622 
8116 2     24.2009233557402     13.7912412759334 
4757 1    0.757224465369072     14.7638501512236 
6331 1     1.71749780094031     14.9491391937937 
4163 1     2.71512048937561     15.0776154654849 
1597 1     3.68661100365732     15.3143961042542 
3443 1     4.48614794105468     14.6999898730812 
5478 2     5.60314409726964     14.6332987603691 
6707 1     6.63614086222407     15.2814610178102 
461 1      7.4993364496395     14.8664818144647 
839 1     8.41655266513737     15.0964135058037 
168 2     9.46105249238379     14.7315713028989 
6655 1     11.0244372173233     14.9002663637604 
5266 2     12.2636518869301     15.1693003366335 
7159 1     13.4126719918434     14.9299420999157 
7902 2     14.4926699733962     14.7355069736281 
2993 1     16.1579798886814     15.2504923524604 
6114 2     17.0804979102257     14.6313691223097 
5555 1     17.9634054679783     15.3232663534035 
5737 1     18.3612151665877     14.4204209607751 
6697 1     18.9378617875035     15.2540524152588 
296 2     19.6275856148478     14.4048905346074 
5078 2     20.8843083879557     14.6064841534409 
4440 2     22.2438320240132     14.8971872476539 
1861 1     23.3581816949721       14.56656865932 
6182 2    0.979204374822157     15.8456190769677 
5125 1     2.08200186158909       15.87453300904 
5455 1     3.00651398881866     15.9880965687464 
6391 1     3.76355157894909      16.518289587476 
4782 2     4.66117594457907     15.8244515723212 
6755 1     5.75844272265264     15.7030623817828 
5241 1      5.4539858260287     16.6253937563755 
4692 2     6.54141179564003     16.4764246305617 
6342 2     7.72116365473056     15.9838532295352 
1366 2     9.04458234060238     15.9767605527799 
4066 2     10.2863492047547     15.7266100213399 
7551 1     11.3770616316715     15.8151107409277 
5278 2     12.2302872350237     16.5052821904557 
3671 1      13.143557560966     15.8475543490679 
1479 1     14.1205709373037     15.7879835084733 
4667 1      15.219066642216      15.570997647062 
3025 1     16.0265840365127     16.1745067542008 
6809 1     16.9873875775873     15.7689377686349 
1519 1     17.8251326521442     16.2610942278451 
1350 2     18.9058319439755     16.3493545832374 
5896 2     20.0795993035566     15.6561423349637 
1247 1     21.2490683770976     15.6302835713725 
1310 2     22.2107346541266     16.1793237465285 
2066 2     23.3558345006964     15.6893347073481 
4888 2    0.566226359813202      17.035110900667 
7901 1     1.65309896366176     16.7463434841431 
1344 2     2.71336050539117      17.058961435826 
4413 1      3.7446990317121     17.5329200926091 
3697 1     4.55989253630692     17.0169044599189 
3062 2     5.38759259819977     17.7133789934883 
7136 2     6.61203005186481     17.7777719256031 
7327 1     7.47213620636818      17.094350635623 
5318 2     8.55457575692031     17.1249942453466 
1341 1     10.9476921695913     16.6854999924093 
3052 2     9.86510502580359     16.9828813804521 
2285 1      10.489313978599     17.8817025667934 
1942 2     11.5461168493521     17.6002188402293 
1653 1      12.678993887771     17.5249814680358 
6054 2         13.556549042     16.8600293946681 
8167 1     14.2699358146223     17.6891808096907 
1284 2     14.8456303843715     16.6446472054529 
3457 1     15.2065382395328     17.7724221170953 
7065 1      15.846067100524     17.0841270496698 
7426 2     16.9474910701946     16.9163664994297 
5513 1     16.3385827125565     17.8760775944968 
5507 1     18.0861349287643     17.2098686995802 
622 2     19.2074813125763     17.6197725760189 
5985 1     19.9384735652647     16.7581110145801 
6799 1      20.346593445481     17.6408185222876 
4458 2     21.0495800502918     16.7375124542275 
785 1     22.1688890296336      17.251769346374 
1978 2     23.3086576917943     16.9912895918462 
1857 1    0.507823050327602     18.1179461542183 
5313 1      1.0286425873971     18.9217540699991 
4942 2     1.63436489825773     17.8654550370536 
4213 1       1.998151749003     18.8977618794211 
7182 2     2.95897387215931     18.3464444243781 
210 2     4.38650833661249     18.4536874806985 
6732 2     5.75345097751991     18.9423842929833 
3333 1     6.88823325310647      18.831014093785 
34 2     7.84298730219456     18.2059016118671 
1336 2     9.27923247678947     18.1753577145444 
7395 1     10.2182469803084     18.7856938385942 
4352 2     11.3106513101862     18.8813434658194 
6629 1     12.3017241979587     18.4198016785547 
3236 2     13.3998787738419     18.3759038235085 
550 2     14.6078880777449     18.8056303733199 
943 1     15.6719677901939     18.5876477867499 
8094 2     16.7015499582367     18.9060007541448 
7545 1     17.3395820026362     17.9770341776163 
6489 1     18.2679455142196     18.1644575433626 
6175 1      19.011199651637       18.80972554004 
3569 1     19.9221292165391     18.4952227116146 
3219 1     20.7705686747312     18.9252315094717 
5340 2     21.3753826046162     18.0141162960059 
2982 2      22.665396794609     18.2384533481784 
3905 1     23.7388666970635     17.9965823961787 
1043 1    0.547645385379174      19.763332117063 
2792 2     1.63413826876112     19.9459645739324 
2339 1     2.69330693117326     19.5616023899079 
3559 1     3.62796074540039     19.2346637118741 
6512 2     4.67693429265645     19.7503353559994 
651 1     5.73327247263857     20.0630536354847 
4909 1     6.68150388088872     19.7614084137024 
2493 1     7.64295782486185     19.4392868683386 
7723 1     8.48748609956878     20.0079736363115 
1689 1     8.52967278340759      19.042045941996 
5551 1     9.42794989981919      19.310696406247 
2229 1     9.39851287618467     20.2418491737352 
3204 2     10.4480328784083     19.8813807609787 
1397 1     11.5726272234268     19.9675776590386 
1150 2     12.5984341891128     19.4844597566853 
5743 1     13.6976077381461     19.4877953069069 
131 1     14.5603334387116     19.9422923607962 
3142 2     15.6458239181233     19.7011917331133 
4630 2     17.0125852827581      20.121929661554 
6776 2     17.9127622519271      19.191438044878 
4631 1     18.8055464541968     19.7783108554105 
7168 2       19.87915461616     19.6295357730653 
4241 1     21.7575247097949     19.0696440218948 
7110 2     21.1029111223085     19.9906444129594 
2325 1     22.6644781728564     19.3303028939425 
733 1     22.1596338045241     20.1194583213041 
639 1     23.5539103041728     19.0369084617186 
295 1    0.695579667582926     20.7252275484833 
467 1     1.58482113277563     21.0410149607481 
6440 2     3.49420859088241      20.317312513998 
2461 1     2.49234287137599     20.7149097073739 
5465 1      4.4088365509142     20.8744829033122 
2924 2     5.45685732558743     21.1529549103713 
1919 1     6.46250936663358     20.7015695482078 
5150 2      7.5506038399387     20.5822197668377 
6748 2     8.83963249719924     21.1797333856393 
671 1     10.0092100614776     20.9569271303681 
6922 2     11.1029591276139      21.005236417646 
6966 2     12.3831069575419     20.7420027519118 
7192 2      13.661937667903     20.6281614679381 
4240 2     14.9999833756172     20.9706571461061 
635 1     16.0945926899692     20.6886137082088 
417 1     17.0951860744025     21.2118570765344 
559 1     18.0734803461463     20.4206650436336 
646 2     19.2056915807141     20.7919194312185 
3431 1     20.2879150386588      20.739663367441 
677 1     21.2170896927571     21.0951974167559 
1838 2     22.3175015689874     21.1920650104277 
1016 2     23.2861725083156     20.2449192893769 
6363 1      23.419063497258     21.3516998332855 
7721 1     24.2755641428113     20.8481204260259 
7265 1     4.11957602553161     48.7647219082571 
4613 1     1.06375640505085     21.8294235378255 
6062 2      2.3121987702492      21.855189059355 
5101 1     3.36350589947737     21.4151117067732 
3729 1     3.33968732062421     22.4237596689242 
5652 2     4.35651726001114     21.9811912729787 
614 2     5.59021346244139     22.4209709186306 
6592 2     6.71490062026514     21.7694571956373 
4633 1     7.85181994167724     21.6396775498737 
477 1     7.54896384738674     22.5257334940031 
962 2     8.65631668277939     22.5208254001369 
6274 2     9.86981923307402      22.029405867612 
7307 1     10.9559231780548     22.0972624996846 
6967 1     11.9188490236189     21.7732863975513 
6408 2     13.0284139865437     21.8509180881008 
5021 1     14.1144050078473     21.6806719926788 
5172 2     15.0201395928669     22.3178575385211 
3296 2     16.1114451719021     21.7509778620763 
7348 2     17.1937583514882     22.3745239129165 
7372 2     18.1616076496768     21.5325720852415 
1658 2     19.3669134950762     22.0516421369181 
4995 1     20.4328302878375     21.6954317039596 
4854 2     21.4955436502338      22.201506072998 
1478 2     22.8918505897177     22.3463245716163 
4040 2     24.3130018482226     21.9889175229609 
5638 2    0.376132852035713     22.8255131570532 
2971 1     1.46492565071695     22.6901769914273 
7596 2     2.45109093602092     23.1176716820088 
3408 2     3.64725631921115     23.5262064835691 
7439 1     4.66753659178728     23.0477001546595 
5727 1     5.64816476852655     23.5434850090511 
1754 2     6.66415350255873     23.1386275288698 
1635 1     7.88627908666512     23.4173223165923 
5531 1     8.88981667986729     23.6688962306383 
1485 1     9.64431555621498     23.0951362327752 
5329 1     10.6023968525933     23.0387003198623 
3728 2      11.748067754547     22.8565036619719 
3591 1     12.8251188880719     22.9333925528237 
740 2     13.8907384202403     22.8709701647391 
7792 2     14.9696123546178     23.6047374183685 
3948 2     16.1331750892176     23.0707608771899 
588 2     17.3306311518355     23.6952316206854 
6336 2     18.3455869162847     22.8390207227043 
2827 1     19.3621080453254     23.2370865562239 
6096 2     20.3758879684979     22.8272342302756 
2520 2     21.1899463253577     23.7531978230037 
1655 1     22.0916185226594     23.1189293714305 
113 1     22.9806451443359     23.5163067965169 
4277 1     23.8103214985982     22.9560909732165 
6237 1    0.213658357192596      23.929447037054 
1264 2    0.586253095781617     24.9729601878242 
6384 2     1.33977729900991     23.8486984384863 
3526 2     2.58350530579424     24.3605860364085 
322 2     3.71519690776695     24.9094627971287 
4030 2     4.74803093945798     24.1514004748729 
1848 2     5.94585148515654     24.6490140745781 
1962 2     7.13438478593291     24.2977091168368 
8017 1     8.21844778110572     24.3259562468465 
1087 1      9.0496833463356     24.7382583492101 
3232 2     9.96390856552136     24.1570359476726 
8000 2     11.2128870290271     24.0025786070594 
734 2     12.4971409361191     23.9660495417547 
1187 1     12.9210019461888     24.9783364466385 
6608 2     13.7774351175289     24.1736916785046 
6596 2     14.9475927144166     24.8588376973211 
170 2     16.1206160142334     24.3539452393771 
2039 1     17.1215978758629      24.777176620277 
1214 2     18.6046458907126     24.0920426848012 
3662 2     19.9483734338145     24.1842908850604 
1671 1     20.9180051953387     24.8036018729978 
213 1     21.8532900272567     25.0079413891355 
4779 1     22.2084035802313     24.0955835013654 
3050 2     22.9742940896171     24.8505809913741 
7742 2     23.9453441165857     24.0400922404002 
5231 1    0.577979794999993     26.0865369583295 
6389 1     1.69071714753297     24.9806223523247 
4961 1     1.53484152626468     25.9251066011241 
5392 2     2.67419579876584     25.6796087393752 
6800 2      4.8924148851229     25.4056880366805 
6927 1     5.95141345721889     25.7889543555838 
5461 1     6.86709958981461     25.4256407731985 
5877 1     7.81811782683978     25.1776436956156 
6447 1     8.67341068129235     25.6167318182663 
8161 1     10.7361511496005     25.0186886174869 
5656 2     9.80157793926227      25.575326872151 
884 2     11.0646813767421      26.143031155299 
7930 2     11.8429318336051     25.1356809628068 
1582 2     12.6626236815494     26.1373522853609 
7828 2     13.8496152579639     25.5007979381977 
2958 2     14.9759351867566     26.1241981220236 
4823 1     15.9379947605519     25.4890560061738 
36 2     16.9893729101483     25.8748871058879 
5070 2      18.106810172493     25.2475486457959 
2975 1     19.2115571070812     25.0703860670144 
4865 1     18.9077037619642     26.0156050258387 
795 1     20.1256027404817      25.328843891278 
668 2     21.1460752716552     25.9082500733441 
503 1     22.4027912420555     25.8389299694901 
2167 1     24.0999040345747     25.1133453290559 
4715 1     23.4657384216546      25.825605743494 
3466 2     1.14802050290513     27.0146557235788 
7499 1     2.21442821948793     26.6628494353576 
3999 1     3.12550202018779     27.0316206644369 
7404 2     3.88892231072958     26.2351003743647 
5734 2     5.19421463997895     26.6171692219032 
3337 1     6.16036817897426     27.1966720996883 
2315 1     6.67853906043697     26.4105675080723 
1256 2     7.76770123449071     26.2665537600217 
1539 1     8.39215932469764     27.1558397949418 
7193 1     9.08346035855089     26.4886704900457 
4051 1     10.0637797874871     26.6597210645918 
1571 1     11.8794160856931     26.9197962670419 
6917 1     12.8535580374456     27.3147339709284 
2790 2     13.8248655821188     26.7649523730664 
594 2      16.090220110184       26.72016273609 
983 1     17.9692438109085     26.3816325514819 
6880 2     17.3032569358233     27.3023094647219 
720 2     18.7521702054669     27.1518143857373 
6406 2     19.9292115443566     26.3999974187117 
1614 2     20.9185497561135      27.274723738617 
7799 1     21.9130645973209     26.6850855599413 
6468 2      23.033867357055     26.8216754771467 
4255 1     24.1404378192337      26.511867498916 
564 2    0.205534010357354     27.8618091690798 
6637 1     1.22830866928762     28.1724037440879 
7896 2     2.22656392025104     27.7689975911786 
3561 1     3.28645256474635     28.0204855056067 
842 2     4.24088270322172     27.5266235428418 
3509 1     5.34846195454479     27.6904224717569 
3010 2     6.25194415581845     28.3498614541125 
1408 2     7.23959718060244     27.4707657463579 
878 2     8.26449646373093     28.2311319283125 
2394 2     9.45382692591485     27.5929504159143 
150 2     10.8522905451828     27.4607933154739 
6171 1     10.2640590795402      28.390985749544 
5542 2     12.0168059384465     28.0304479686188 
926 2     13.7840063396235     28.0401151925389 
6528 2     14.9624309397288     27.4037559619411 
6856 2     16.1451645214072     27.9782496664156 
5469 1     18.1423233591209     28.0750527260598 
6870 2     19.2327938444228     28.4335130372045 
4455 1     19.8077021816427     27.4833529229216 
1291 1     20.3467754000154     28.2715907871707 
3880 2     22.0959161730943      27.769150183676 
6425 1     23.1958475639919     27.8979228194031 
1713 1     24.0668312398465     27.4697713857998 
4735 1     23.9357976387612     28.4790981768501 
3915 1    0.534144227544557     28.9268148883588 
3362 2     1.63405146088634      29.174461497308 
5699 1     2.66454212772398     28.7861775193904 
7574 2     3.75548537033301     29.0177928323511 