ITEM: TIMESTEP
26000
ITEM: NUMBER OF ATOMS
10000
ITEM: BOX BOUNDS pp pp pp
0.000000 100.000000
0.000000 100.000000
-0.500000 0.500000
ITEM: ATOMS id type x y 
1 2 29.6211 41.2508
2 2 45.2009 60.761
3 2 70.7954 1.299
4 2 98.0317 5.13111
5 2 23.8767 6.15696
6 2 37.7989 28.8815
7 2 42.8211 97.0892
8 2 47.4588 89.3327
9 2 23.1422 84.8512
10 2 78.9994 23.9863
11 2 47.4795 45.0467
12 2 87.8278 26.297
13 2 50.5841 92.2191
14 2 56.7299 32.4933
15 2 18.9739 24.6161
16 2 13.3648 0.655878
17 2 29.0059 55.2512
18 2 34.9538 86.1812
19 2 71.8689 21.0997
20 2 44.2236 14.5672
21 2 95.6753 14.3648
22 2 42.7681 64.9442
23 2 51.4986 14.9089
24 2 66.8453 86.1853
25 2 48.9608 74.6923
26 2 72.8893 7.74799
27 2 30.1701 99.4138
28 2 30.2776 56.3825
29 2 63.3394 87.4834
30 2 93.0468 86.792
31 2 71.9213 22.6586
32 2 32.7453 39.9457
33 2 74.8802 74.1318
34 2 1.60215 99.6331
35 2 21.0648 96.9881
36 2 57.9363 5.16516
37 2 68.9857 27.8257
38 2 42.9319 47.3832
39 2 23.3265 78.2925
40 2 52.1924 4.67716
41 2 22.9206 29.4628
42 2 25.5873 33.3777
43 2 12.8798 83.7685
44 2 37.5889 60.6648
45 2 32.4648 75.5567
46 2 22.4136 7.23362
47 2 76.177 74.6019
48 2 87.8611 39.4956
49 2 86.5318 93.2407
50 2 87.3326 0.86379
51 2 45.3513 67.3894
52 2 92.8051 90.7386
53 2 68.7592 12.9813
54 2 68.7115 48.2901
55 2 49.7077 9.92382
56 2 14.4649 13.3245
57 2 34.4407 50.4985
58 2 12.8888 57.9893
59 2 98.0837 70.389
60 2 18.995 3.3142
61 2 23.4686 23.678
62 2 88.7125 56.1978
63 2 6.61827 43.1891
64 2 16.2061 1.94528
65 2 76.727 32.1557
66 2 40.6024 20.4253
67 2 88.7853 77.4681
68 2 5.61963 97.8727
69 2 33.5245 61.705
70 2 46.8515 10.5846
71 2 44.6767 93.1858
72 2 90.4562 62.107
73 2 23.7096 35.8397
74 2 4.87555 2.89284
75 2 56.9016 16.7323
76 2 58.5424 81.7458
77 2 22.5101 31.16
78 2 77.6913 96.8389
79 2 58.8558 25.288
80 2 57.4317 42.3787
81 2 93.3435 46.7436
82 2 23.5753 70.3481
83 2 65.9412 24.4994
84 2 58.3906 1.91571
85 2 86.8509 15.5628
86 2 55.3537 33.7635
87 2 23.6127 25.2167
88 2 62.5687 92.6783
89 2 6.46719 44.9392
90 2 60.5918 49.3096
91 2 32.8558 51.0369
92 2 75.0693 86.8823
93 2 55.3967 64.0739
94 2 24.7452 22.7312
95 2 4.97605 57.1318
96 2 72.1415 47.4531
97 2 62.1496 71.2337
98 2 90.3047 31.691
99 2 33.4621 95.5897
100 2 58.0067 74.9833
101 2 27.1251 24.1686
102 2 39.941 62.5705
103 2 36.7734 0.825847
104 2 93.2966 31.749
105 2 16.352 72.924
106 2 55.3943 9.1553
107 2 75.14 62.3068
108 2 64.1485 31.448
109 2 45.7345 48.2768
110 2 5.1883 34.2784
111 2 42.3239 92.8009
112 2 77.6884 29.6523
113 2 47.8007 26.56
114 2 5.558 64.0498
115 2 32.0371 67.0686
116 2 6.95153 72.0427
117 2 73.8726 54.7918
118 2 39.9918 92.4591
119 2 83.1131 14.9288
120 2 32.3909 11.9096
121 2 64.8237 62.2809
122 2 93.8176 50.8494
123 2 51.0511 9.17987
124 2 11.251 97.9951
125 2 14.5695 46.9048
126 2 57.153 60.3213
127 2 58.531 90.0471
128 2 0.962236 35.4237
129 2 19.032 78.9141
130 2 10.13 68.1241
131 2 74.6159 42.9129
132 2 27.7409 56.1682
133 2 19.2722 40.3975
134 2 12.3566 81.8867
135 2 47.0041 72.0523
136 2 46.8057 51.4167
137 2 39.2121 75.7556
138 2 47.6311 75.7746
139 2 39.7065 59.3231
140 2 59.7757 20.275
141 2 7.03138 94.5352
142 2 86.1395 61.5637
143 2 69.6926 57.3569
144 2 61.6245 22.2915
145 2 49.3603 11.4707
146 2 22.7576 96.2692
147 2 25.7005 74.6743
148 2 76.9668 3.55647
149 2 7.63388 5.62265
150 2 25.4611 7.04056
151 2 84.4322 44.3789
152 2 0.417631 75.2037
153 2 96.8254 30.3952
154 2 69.3163 10.6083
155 2 75.2978 76.9822
156 2 34.3223 58.7818
157 2 10.7889 29.0518
158 2 78.4349 18.6828
159 2 90.2284 58.0623
160 2 83.1616 51.1199
161 2 52.4909 9.68871
162 2 80.3085 32.6422
163 2 27.5493 54.5129
164 2 64.5899 46.8183
165 2 20.1582 0.200615
166 2 79.8918 43.626
167 2 63.4625 15.2425
168 2 76.7959 83.8862
169 2 1.54967 56.6925
170 2 39.3025 45.083
171 2 0.051048 2.82695
172 2 75.7805 88.0785
173 2 7.05633 24.5914
174 2 20.8896 74.6581
175 2 59.0997 31.14
176 2 67.3006 3.28062
177 2 50.7903 48.7329
178 2 81.7246 49.9746
179 2 70.3527 63.4591
180 2 67.6109 23.7236
181 2 16.5442 38.5961
182 2 88.5343 97.3934
183 2 0.209848 48.3136
184 2 15.7686 30.685
185 2 46.3977 54.3754
186 2 92.8046 23.5352
187 2 4.65679 73.9228
188 2 49.2546 68.5325
189 2 37.3443 91.9368
190 2 84.3753 91.3493
191 2 6.81696 70.4119
192 2 54.658 79.1235
193 2 67.6241 39.3607
194 2 95.1875 57.4482
195 2 33.249 53.7286
196 2 73.4801 9.15909
197 2 27.1958 31.4497
198 2 24.0181 68.7596
199 2 87.5662 18.0873
200 2 35.5959 35.5598
201 2 10.5524 35.5079
202 2 6.27676 46.7076
203 2 49.6347 73.1054
204 2 76.0204 6.38827
205 2 97.1767 24.6896
206 2 43.874 12.927
207 2 81.7535 16.4643
208 2 6.71417 31.8633
209 2 49.1981 70.2156
210 2 33.1316 45.2978
211 2 44.9326 63.0191
212 2 38.4731 93.3548
213 2 97.4532 36.3247
214 2 69.0014 88.4921
215 2 69.6782 72.444
216 2 17.602 4.31432
217 2 94.4651 25.0941
218 2 77.5575 72.9122
219 2 19.5929 42.2435
220 2 68.2001 31.0792
221 2 98.2666 7.65789
222 2 13.0741 64.9589
223 2 66.0794 20.7086
224 2 16.3742 40.8829
225 2 11.9178 45.2792
226 2 9.58513 76.4281
227 2 11.8271 75.699
228 2 66.1762 84.8054
229 2 79.6022 10.1368
230 2 13.774 17.3566
231 2 51.9453 57.0146
232 2 44.6599 24.9333
233 2 16.414 63.0949
234 2 74.1437 49.0951
235 2 90.8584 1.73643
236 2 91.0161 33.3223
237 2 74.0116 19.7206
238 2 24.0001 45.1463
239 2 79.1236 70.3851
240 2 81.3052 38.7285
241 2 57.6919 86.772
242 2 13.3001 52.4963
243 2 76.7534 37.016
244 2 2.02088 42.6007
245 2 50.8646 10.6959
246 2 79.3836 87.7274
247 2 38.8348 18.1205
248 2 80.7806 91.1742
249 2 1.72484 10.2863
250 2 9.88555 54.8568
251 2 63.4557 37.5215
252 2 33.3337 99.5777
253 2 2.79891 0.804403
254 2 84.3557 88.9188
255 2 88.4457 81.9798
256 2 51.1105 3.74501
257 2 49.4988 1.837
258 2 30.0887 9.03426
259 2 79.9879 33.9092
260 2 70.5221 15.026
261 2 57.139 33.8987
262 2 94.6128 92.218
263 2 28.4876 7.81084
264 2 22.2087 4.02357
265 2 72.1376 56.9743
266 2 84.9464 12.8305
267 2 89.2611 25.5233
268 2 64.5041 40.6279
269 2 58.7542 13.1815
270 2 63.1321 43.6726
271 2 39.5773 84.3881
272 2 60.9415 72.5797
273 2 34.7205 44.9387
274 2 64.7134 19.7961
275 2 61.6456 64.7948
276 2 38.2753 71.8363
277 2 76.068 19.2673
278 2 1.79693 25.9133
279 2 48.4463 58.8549
280 2 82.6987 48.7089
281 2 16.577 14.7168
282 2 93.7657 15.9148
283 2 28.4661 1.73406
284 2 96.928 13.8631
285 2 7.87354 89.4914
286 2 28.329 77.749
287 2 14.6548 21.9193
288 2 96.4388 0.626968
289 2 11.8614 43.9158
290 2 98.6705 82.8261
291 2 97.0584 49.6179
292 2 3.45387 59.8679
293 2 75.3893 38.1033
294 2 41.6453 98.5159
295 2 66.0338 10.956
296 2 30.9286 62.2175
297 2 44.2287 85.9663
298 2 29.1625 46.2104
299 2 59.5537 71.331
300 2 44.2639 59.5495
301 2 93.7017 0.013024
302 2 1.17968 54.3262
303 2 29.5231 21.3142
304 2 69.7782 98.5512
305 2 7.02387 39.5863
306 2 43.2032 9.66688
307 2 86.234 94.585
308 2 50.2025 94.6293
309 2 71.0539 13.4909
310 2 25.4428 14.1586
311 2 50.8779 44.5067
312 2 97.573 84.1976
313 2 5.37811 24.5937
314 2 65.8334 31.5171
315 2 1.11045 90.8858
316 2 62.8202 5.5277
317 2 77.3398 54.9145
318 2 52.3117 80.0765
319 2 99.6607 53.5253
320 2 34.0661 40.1318
321 2 26.8809 35.6389
322 2 73.8977 98.7414
323 2 50.1027 85.8594
324 2 20.7092 84.2496
325 2 92.5647 64.8483
326 2 99.8857 52.0708
327 2 62.7795 85.7772
328 2 71.33 50.3704
329 2 50.9545 53.5109
330 2 1.9254 75.8991
331 2 9.48826 86.3412
332 2 66.3689 77.3694
333 2 68.1675 51.4522
334 2 97.6893 51.2493
335 2 18.6493 34.0271
336 2 82.9413 67.8283
337 2 7.67551 76.7733
338 2 36.0841 79.1177
339 2 47.425 33.7214
340 2 41.992 80.7279
341 2 15.5839 50.0277
342 2 73.2632 10.4453
343 2 55.0383 6.16888
344 2 38.8408 46.5807
345 2 39.3654 35.7684
346 2 98.1681 90.5819
347 2 32.4556 63.1884
348 2 28.3047 10.6811
349 2 68.9288 23.7955
350 2 7.62722 47.5734
351 2 29.0734 94.5242
352 2 89.4341 35.5966
353 2 80.8452 66.287
354 2 91.8951 21.0774
355 2 15.9619 84.0142
356 2 57.5906 76.4981
357 2 88.0898 85.6277
358 2 22.0459 32.8059
359 2 33.6977 26.855
360 2 32.7224 16.0775
361 2 35.2054 42.7393
362 2 82.2677 78.9385
363 2 47.4589 83.7395
364 2 46.1512 24.8336
365 2 76.4963 50.176
366 2 55.2405 39.0491
367 2 20.2841 4.21674
368 2 20.5856 7.37167
369 2 13.2204 85.5089
370 2 10.8223 82.0963
371 2 88.4813 12.8621
372 2 55.4198 95.7768
373 2 16.415 3.60204
374 2 97.6488 73.1147
375 2 37.911 21.9198
376 2 23.8852 76.6752
377 2 55.8845 82.937
378 2 77.1117 68.6215
379 2 76.6552 46.3057
380 2 68.088 77.2491
381 2 98.2973 39.8938
382 2 52.8202 87.8452
383 2 82.987 5.52404
384 2 11.6305 65.8766
385 2 62.0205 37.634
386 2 96.4326 77.8589
387 2 43.1152 20.4517
388 2 24.102 97.0372
389 2 78.1375 67.3114
390 2 62.307 24.9435
391 2 82.989 52.4707
392 2 3.56071 5.77904
393 2 46.1545 68.3448
394 2 46.9241 64.2884
395 2 87.4573 67.9732
396 2 89.3145 10.6634
397 2 51.0283 1.31543
398 2 11.3557 13.2468
399 2 94.0262 44.2665
400 2 16.3593 12.9656
401 2 85.1059 50.8874
402 2 25.1632 36.3351
403 2 42.2928 13.367
404 2 42.0675 40.683
405 2 64.2806 81.486
406 2 83.53 13.6755
407 2 60.424 30.4571
408 2 40.9389 35.7388
409 2 36.5534 54.4697
410 2 96.7982 37.6769
411 2 45.1862 82.6554
412 2 98.4113 22.6138
413 2 41.6548 39.0215
414 2 35.0682 26.133
415 2 46.0165 61.9609
416 2 95.7273 64.0817
417 2 72.5273 78.1911
418 2 38.2592 0.194993
419 2 74.0639 94.9351
420 2 24.9977 83.4077
421 2 71.8191 95.6239
422 2 97.1985 18.965
423 2 52.0458 46.0074
424 2 61.8691 7.9867
425 2 95.9306 60.7548
426 2 71.689 11.2376
427 2 91.1833 78.7303
428 2 91.5345 83.4689
429 2 38.9353 69.2134
430 2 57.7386 36.7775
431 2 98.8411 95.8555
432 2 17.3549 26.6712
433 2 56.5413 65.286
434 2 64.4892 95.765
435 2 65.6506 12.4559
436 2 94.3994 37.6118
437 2 5.83359 80.9588
438 2 46.3314 60.1654
439 2 46.4739 93.0664
440 2 37.2617 50.3731
441 2 68.2317 41.2874
442 2 35.1821 53.4196
443 2 28.9961 83.8899
444 2 98.721 9.88138
445 2 54.0127 80.6828
446 2 56.2456 6.38808
447 2 40.2561 11.7548
448 2 47.0868 96.8976
449 2 6.08597 52.0658
450 2 21.0954 26.9403
451 2 48.4583 52.265
452 2 91.4186 63.4728
453 2 43.6659 46.4256
454 2 22.671 87.3358
455 2 1.14465 34.2465
456 2 80.4716 41.2111
457 2 61.9172 4.14208
458 2 42.269 51.6335
459 2 11.6348 26.3215
460 2 21.6161 15.4706
461 2 63.2713 82.9198
462 2 14.2315 97.4095
463 2 35.8025 48.0825
464 2 83.9534 26.7511
465 2 96.8109 90.2199
466 2 61.8195 95.1113
467 2 51.6229 68.3445
468 2 97.4267 86.7449
469 2 81.9244 13.9533
470 2 97.3573 46.279
471 2 49.1458 22.1279
472 2 78.0318 36.1257
473 2 67.4148 19.6985
474 2 70.0981 42.3766
475 2 47.9992 92.573
476 2 10.9806 0.789859
477 2 48.0889 86.5626
478 2 61.0451 75.5316
479 2 52.8497 94.5984
480 2 3.32077 27.99
481 2 43.425 11.4481
482 2 4.98105 70.6191
483 2 39.4296 65.2435
484 2 0.709588 19.0685
485 2 64.0967 57.7456
486 2 45.1711 55.4842
487 2 54.5504 97.1584
488 2 38.9479 43.1195
489 2 0.339665 22.5315
490 2 51.6543 29.4854
491 2 28.6961 9.2345
492 2 88.2971 21.1693
493 2 4.74551 6.06651
494 2 69.9955 90.7983
495 2 71.2191 80.9829
496 2 27.8431 79.3883
497 2 0.63128 49.8939
498 2 13.4631 14.4282
499 2 10.5959 43.9712
500 2 86.8742 70.3881
501 2 3.26806 75.0077
502 2 64.8413 43.1609
503 2 31.6433 53.0116
504 2 55.1913 53.2768
505 2 9.31586 45.1294
506 2 86.0569 47.5189
507 2 61.3404 15.704
508 2 32.3995 49.4781
509 2 50.6977 42.9917
510 2 76.2271 43.8989
511 2 69.5888 79.0921
512 2 17.595 34.7559
513 2 11.1645 57.9798
514 2 49.6142 83.6037
515 2 5.70379 22.8308
516 2 67.3296 1.6476
517 2 17.7488 39.869
518 2 93.138 58.4992
519 2 4.27598 30.2769
520 2 19.1739 86.0034
521 2 95.7833 87.0827
522 2 33.6898 83.0742
523 2 64.6751 13.905
524 2 19.3267 80.5415
525 2 36.2385 76.0342
526 2 77.7703 16.289
527 2 19.8486 32.077
528 2 90.7532 13.9069
529 2 22.2599 90.0035
530 2 44.0203 51.7968
531 2 15.1905 6.27987
532 2 96.0213 85.454
533 2 30.1908 28.8792
534 2 76.6141 27.6234
535 2 65.7629 93.6766
536 2 29.8965 30.5014
537 2 34.8357 3.13517
538 2 49.2685 63.1775
539 2 10.4774 60.579
540 2 1.51727 40.4189
541 2 98.9098 2.25023
542 2 47.9151 73.3814
543 2 55.5605 42.2533
544 2 74.527 5.60409
545 2 8.28245 34.9871
546 2 58.0967 32.4925
547 2 16.9048 0.404312
548 2 53.4518 26.2931
549 2 4.99796 12.6357
550 2 10.835 27.5093
551 2 96.3409 80.5501
552 2 9.06909 5.00295
553 2 53.8232 64.8869
554 2 77.0342 40.5657
555 2 59.0391 40.3312
556 2 70.4443 52.7686
557 2 88.7535 27.503
558 2 68.5819 63.2938
559 2 82.8614 45.2328
560 2 56.7726 43.6279
561 2 80.8585 72.6373
562 2 89.0081 43.9723
563 2 88.6088 62.2155
564 2 28.0236 68.4899
565 2 28.605 25.1661
566 2 70.3885 94.5176
567 2 22.2132 44.8482
568 2 99.7081 58.3036
569 2 42.9147 37.8189
570 2 9.61449 94.5764
571 2 90.2552 70.4707
572 2 31.9422 68.8064
573 2 48.83 43.1704
574 2 53.6706 52.8729
575 2 7.98737 63.3356
576 2 32.7031 57.0275
577 2 93.5893 71.0551
578 2 60.0868 76.7566
579 2 89.7194 96.1296
580 2 65.2991 25.7527
581 2 8.30812 31.2746
582 2 41.47 91.3831
583 2 68.1163 66.3101
584 2 98.9634 45.5047
585 2 36.9094 97.582
586 2 80.7807 99.0678
587 2 78.3373 12.6078
588 2 98.4688 24.1415
589 2 20.255 56.3579
590 2 7.46333 19.593
591 2 53.8427 76.7943
592 2 18.1967 43.1761
593 2 93.6971 17.54
594 2 39.3021 55.9037
595 2 7.8919 67.4916
596 2 82.7028 60.9124
597 2 71.9869 42.8653
598 2 98.5506 37.064
599 2 57.0197 26.9683
600 2 77.4752 85.9646
601 2 88.4658 72.1962
602 2 53.1155 17.0997
603 2 24.6641 95.1967
604 2 54.5639 27.776
605 2 64.2252 64.8882
606 2 80.1261 12.5246
607 2 27.8399 85.1923
608 2 28.3117 32.2909
609 2 17.5838 97.1014
610 2 38.26 86.0805
611 2 14.3743 43.8235
612 2 61.9947 40.6644
613 2 0.727606 92.4698
614 2 14.0318 67.1797
615 2 23.829 56.7796
616 2 45.4029 15.2279
617 2 83.687 69.4727
618 2 82.1483 54.7955
619 2 23.3322 66.9868
620 2 48.1419 18.489
621 2 79.2542 97.2283
622 2 39.73 50.6462
623 2 85.5471 78.6817
624 2 90.1198 77.3729
625 2 74.9785 63.9731
626 2 44.4357 0.662254
627 2 21.6671 48.9127
628 2 41.8171 74.0032
629 2 56.7474 64.0081
630 2 36.1804 37.8924
631 2 40.1709 41.162
632 2 22.2994 24.7452
633 2 96.1166 67.7907
634 2 43.8762 76.615
635 2 30.8303 24.9119
636 2 44.5656 71.7961
637 2 56.8605 71.2872
638 2 6.4707 14.9495
639 2 86.7234 84.7867
640 2 73.974 26.3881
641 2 66.2375 74.3221
642 2 79.0072 98.8629
643 2 30.2854 95.9646
644 2 69.9177 16.9686
645 2 19.3081 98.7148
646 2 90.4536 85.132
647 2 27.1848 8.5463
648 2 96.48 73.9921
649 2 3.59005 54.0287
650 2 26.7731 11.6309
651 2 98.7959 20.5451
652 2 75.0079 3.28174
653 2 41.9832 25.6759
654 2 95.254 51.7967
655 2 51.4076 22.0148
656 2 72.5135 49.1039
657 2 9.10032 46.8458
658 2 11.1765 41.3447
659 2 36.3286 51.8521
660 2 31.3833 19.0
661 2 69.3638 95.8194
662 2 75.0616 47.0704
663 2 96.5883 3.938
664 2 58.1119 3.64763
665 2 2.88938 78.2444
666 2 28.4486 42.5591
667 2 16.4429 78.7903
668 2 79.1614 21.0652
669 2 81.4251 63.9734
670 2 17.8411 79.9108
671 2 69.5545 35.2379
672 2 74.8716 9.58936
673 2 15.9098 44.4144
674 2 55.3678 25.0335
675 2 13.1645 61.0954
676 2 92.1081 70.28
677 2 41.7026 56.9891
678 2 15.6348 7.64194
679 2 26.2527 94.2206
680 2 26.2922 5.4903
681 2 63.4822 18.7969
682 2 29.9023 32.4283
683 2 26.8194 72.6294
684 2 79.3785 95.3595
685 2 9.92308 41.3602
686 2 70.5242 86.1464
687 2 99.2571 38.5296
688 2 20.6142 25.3835
689 2 3.1345 58.5142
690 2 52.2922 63.0853
691 2 96.664 43.9714
692 2 89.0819 1.23629
693 2 59.1761 35.4497
694 2 94.6083 2.6616
695 2 96.0961 32.897
696 2 13.1017 79.6131
697 2 83.0854 57.5854
698 2 98.8603 77.0224
699 2 40.8256 15.3668
700 2 41.6403 11.5318
701 2 35.2382 97.0619
702 2 84.5229 61.2183
703 2 25.297 68.0498
704 2 88.3545 46.5166
705 2 80.1358 80.785
706 2 49.0118 88.9576
707 2 67.6672 10.7845
708 2 82.8377 87.7463
709 2 19.1642 93.5792
710 2 33.2292 92.5652
711 2 86.9383 52.317
712 2 97.2109 47.8372
713 2 31.7338 72.3359
714 2 23.7218 62.8843
715 2 76.1463 93.2462
716 2 63.4589 3.15137
717 2 40.3633 64.3708
718 2 25.7094 92.6119
719 2 18.3746 31.6458
720 2 37.8793 30.8371
721 2 47.6261 29.7754
722 2 79.7747 53.7736
723 2 92.9074 49.4224
724 2 53.808 33.9856
725 2 78.2393 22.5322
726 2 30.2427 72.5812
727 2 52.8706 83.387
728 2 51.4234 19.0457
729 2 34.47 79.8748
730 2 44.9103 9.40458
731 2 36.078 58.6625
732 2 89.629 42.4895
733 2 27.8367 82.7311
734 2 51.3388 7.64371
735 2 75.3791 45.2538
736 2 85.5382 16.5632
737 2 95.486 49.2825
738 2 75.5287 15.2668
739 2 81.4952 22.509
740 2 91.6747 39.3896
741 2 94.9613 26.6917
742 2 9.16052 6.58058
743 2 56.1177 30.9771
744 2 27.0379 2.69109
745 2 43.6531 63.4667
746 2 9.06015 82.4245
747 2 37.7137 8.92054
748 2 57.725 58.675
749 2 21.3772 66.2607
750 2 7.21995 8.4201
751 2 5.69537 65.5109
752 2 76.3631 61.8223
753 2 94.9278 75.7961
754 2 63.2492 42.0414
755 2 28.8747 67.0804
756 2 10.6872 46.4118
757 2 68.187 71.5334
758 2 64.0717 93.238
759 2 75.4648 56.442
760 2 24.8728 44.042
761 2 73.2569 14.3845
762 2 21.2375 76.2763
763 2 32.4062 2.40619
764 2 13.9751 56.95
765 2 55.1 62.3441
766 2 5.26346 84.8591
767 2 30.0611 17.9792
768 2 80.8514 18.0669
769 2 40.6887 0.028419
770 2 31.2046 51.5174
771 2 51.4462 97.3793
772 2 3.46756 76.6639
773 2 29.1108 70.8062
774 2 95.1007 81.371
775 2 39.238 61.0877
776 2 48.9292 35.4109
777 2 80.2185 56.9626
778 2 47.5828 70.4818
779 2 38.3402 25.0797
780 2 47.9039 60.4765
781 2 84.7508 99.7152
782 2 48.1982 9.39898
783 2 85.2484 90.429
784 2 78.3905 3.16169
785 2 68.6238 42.7865
786 2 59.9892 32.3516
787 2 37.8303 53.6951
788 2 26.68 68.5052
789 2 95.0776 43.0086
790 2 98.5025 49.0462
791 2 32.8259 85.8102
792 2 69.7499 26.4322
793 2 81.2026 87.9022
794 2 90.1525 93.4456
795 2 42.8821 30.3831
796 2 35.5745 68.9434
797 2 3.71991 32.3195
798 2 39.2775 99.441
799 2 18.5427 56.5315
800 2 23.4257 50.5932
801 2 77.6016 87.7904
802 2 43.2329 27.0656
803 2 41.3229 7.74689
804 2 64.5794 60.6347
805 2 14.5546 30.2658
806 2 0.064029 32.8808
807 2 90.9125 36.4953
808 2 12.3373 63.4558
809 2 27.5866 0.508808
810 2 71.3009 67.364
811 2 25.8616 27.963
812 2 12.8686 12.8754
813 2 13.9278 11.9911
814 2 24.901 71.532
815 2 59.1097 57.94
816 2 26.7279 43.1554
817 2 51.9047 86.3495
818 2 9.99212 95.8393
819 2 24.5702 2.34201
820 2 63.5094 9.84093
821 2 45.5996 46.9319
822 2 32.1593 38.2296
823 2 17.3915 89.3042
824 2 78.4538 80.3738
825 2 72.3596 36.9193
826 2 49.48 20.4948
827 2 58.811 66.9841
828 2 87.9501 59.4382
829 2 20.4149 90.1829
830 2 59.1295 73.8934
831 2 32.4421 47.6956
832 2 76.0273 4.86049
833 2 19.1253 69.7249
834 2 19.9726 68.371
835 2 97.4544 56.1487
836 2 68.9539 67.7222
837 2 77.9193 49.2044
838 2 60.0967 47.6336
839 2 33.2618 34.8211
840 2 36.7994 62.1903
841 2 58.0726 98.882
842 2 71.0576 41.067
843 2 21.1281 41.6834
844 2 81.1871 42.7202
845 2 74.9846 50.8916
846 2 81.2671 10.5946
847 2 38.577 15.6265
848 2 64.4301 50.8146
849 2 19.9751 48.4354
850 2 59.1783 33.8418
851 2 80.7274 77.16
852 2 48.1626 81.317
853 2 45.6794 21.2022
854 2 73.3745 1.04797
855 2 82.1 9.0679
856 2 9.46549 78.1133
857 2 23.8092 41.0494
858 2 26.199 98.2386
859 2 3.98216 79.5351
860 2 11.6206 53.2825
861 2 45.5173 87.0369
862 2 17.6387 98.8818
863 2 75.9375 72.8933
864 2 70.732 27.4738
865 2 14.482 64.8302
866 2 30.8149 49.7317
867 2 0.695438 82.1744
868 2 42.2619 69.261
869 2 40.3744 77.0202
870 2 50.7466 35.447
871 2 84.1129 79.2009
872 2 49.5428 26.4234
873 2 38.5732 94.7345
874 2 77.6 33.6161
875 2 97.1606 59.6863
876 2 1.45973 58.5046
877 2 22.4261 64.911
878 2 17.7593 16.3576
879 2 99.4504 7.12644
880 2 91.8947 17.5399
881 2 0.053816 55.9484
882 2 72.9152 28.8048
883 2 66.6149 70.5027
884 2 89.6678 2.98241
885 2 63.5382 61.3221
886 2 1.95659 96.9665
887 2 77.5992 20.1322
888 2 47.824 24.4869
889 2 28.092 91.5477
890 2 5.26395 54.1859
891 2 3.01556 98.4156
892 2 71.9772 86.7921
893 2 91.8199 29.5227
894 2 79.2491 71.7401
895 2 6.40531 77.6716
896 2 5.72415 10.4428
897 2 78.0996 59.3272
898 2 25.8964 18.5626
899 2 92.6515 92.3128
900 2 58.16 18.1236
901 2 86.2245 97.2828
902 2 65.0939 23.1307
903 2 89.7122 87.9448
904 2 33.9898 49.0314
905 2 3.17892 56.8774
906 2 88.3369 23.9304
907 2 51.2477 83.5335
908 2 13.2329 46.3939
909 2 11.3944 80.4514
910 2 19.4338 10.1105
911 2 4.95695 92.2005
912 2 18.7631 88.3298
913 2 78.404 83.4353
914 2 88.6551 68.8269
915 2 45.6323 31.8319
916 2 30.6466 38.8477
917 2 44.2663 48.1345
918 2 52.3627 30.8
919 2 47.9313 28.0671
920 2 92.3223 33.1872
921 2 30.3417 52.3575
922 2 77.0247 34.7689
923 2 11.4911 16.1973
924 2 37.2106 32.3443
925 2 75.5479 8.15731
926 2 43.6554 8.18998
927 2 92.7613 51.8838
928 2 59.2454 52.7049
929 2 59.7312 93.7259
930 2 94.1304 40.1543
931 2 2.43993 30.0225
932 2 17.7716 86.9107
933 2 77.1568 56.7822
934 2 16.3637 35.8395
935 2 92.3464 54.7051
936 2 31.9363 23.3997
937 2 20.275 86.7565
938 2 96.8095 65.4076
939 2 97.6424 16.3924
940 2 89.8606 51.6312
941 2 74.9283 13.5845
942 2 63.7617 6.25017
943 2 34.6699 34.2854
944 2 37.1758 46.1882
945 2 52.3262 33.7242
946 2 53.8395 29.9996
947 2 40.3655 30.2237
948 2 70.9766 46.3973
949 2 58.8453 14.556
950 2 48.2319 38.0774
951 2 31.7966 87.6317
952 2 52.9076 7.8473
953 2 28.3388 34.6832
954 2 63.3183 53.3459
955 2 54.4294 37.6825
956 2 76.6827 21.659
957 2 10.178 74.9208
958 2 3.44175 70.8123
959 2 63.0582 77.0572
960 2 15.5511 26.9656
961 2 26.1067 1.38684
962 2 60.6732 57.9952
963 2 91.1866 91.1634
964 2 74.9097 53.3232
965 2 80.5037 8.41216
966 2 28.954 90.583
967 2 44.644 81.32
968 2 67.7649 6.01317
969 2 23.9371 53.4663
970 2 12.5432 9.70126
971 2 1.99359 52.8779
972 2 17.4508 95.5468
973 2 37.5659 44.5116
974 2 33.93 21.1754
975 2 13.284 43.0254
976 2 43.2629 72.9912
977 2 21.1073 61.6757
978 2 8.57203 10.6488
979 2 50.3597 15.7667
980 2 30.0575 37.1522
981 2 92.1097 85.0724
982 2 47.4216 78.5624
983 2 79.1391 1.58833
984 2 70.2267 47.8511
985 2 40.6192 42.9162
986 2 90.0648 59.6762
987 2 28.629 51.6732
988 2 5.22189 0.431986
989 2 11.3485 33.54
990 2 63.1603 49.6518
991 2 47.4009 65.8987
992 2 56.7327 12.8928
993 2 11.9756 23.5139
994 2 30.0153 82.4831
995 2 4.96888 68.8584
996 2 62.7743 68.4176
997 2 16.8544 20.8268
998 2 8.61517 13.4819
999 2 64.1524 35.1775
1000 2 1.63052 45.9738
1001 2 57.5637 21.8361
1002 2 37.6144 47.5939
1003 2 73.621 86.0838
1004 2 62.2312 91.0992
1005 2 13.4026 76.1758
1006 2 86.0382 68.9038
1007 2 24.5574 4.78034
1008 2 40.3711 98.739
1009 2 22.8208 34.4172
1010 2 14.4354 77.4883
1011 2 1.45286 12.0538
1012 2 88.1698 8.33717
1013 2 65.5714 69.4814
1014 2 54.3695 48.1833
1015 2 76.552 25.0126
1016 2 50.9123 25.5955
1017 2 34.4341 60.4416
1018 2 99.6105 34.5421
1019 2 75.6225 54.8558
1020 2 40.5744 9.20409
1021 2 14.6181 20.0438
1022 2 1.13464 80.683
1023 2 30.2301 84.9882
1024 2 49.0133 23.515
1025 2 71.7366 6.85078
1026 2 81.8567 3.23101
1027 2 43.742 54.349
1028 2 40.1182 34.0656
1029 2 46.0113 3.35175
1030 2 22.0532 19.6213
1031 2 88.4873 63.8968
1032 2 20.0605 73.6962
1033 2 36.1096 23.3917
1034 2 50.4309 23.2481
1035 2 16.1178 64.9136
1036 2 72.4074 97.8641
1037 2 21.3762 72.7742
1038 2 7.21453 73.5888
1039 2 34.5838 57.1885
1040 2 24.0458 48.6776
1041 2 89.7623 14.9776
1042 2 36.0865 70.5259
1043 2 61.4235 45.4041
1044 2 0.865979 29.2136
1045 2 58.3946 43.1689
1046 2 39.6421 86.713
1047 2 26.3793 58.1279
1048 2 36.9074 39.1886
1049 2 78.5233 65.8686
1050 2 93.5604 81.8459
1051 2 43.024 52.7247
1052 2 94.3651 53.6578
1053 2 65.3509 58.9681
1054 2 87.1916 41.823
1055 2 95.4252 54.6072
1056 2 86.1791 81.0039
1057 2 24.5757 81.7962
1058 2 32.9671 59.5991
1059 2 59.2779 68.2577
1060 2 3.02179 89.1102
1061 2 49.185 44.7361
1062 2 11.1336 10.0697
1063 2 76.8607 38.6113
1064 2 37.2259 80.3985
1065 2 30.4703 78.8925
1066 2 61.5868 1.14358
1067 2 80.9135 74.389
1068 2 6.04467 92.9917
1069 2 2.67309 90.8728
1070 2 20.6428 71.6626
1071 2 33.5738 76.7595
1072 2 16.9781 81.468
1073 2 94.6671 27.9618
1074 2 74.1025 34.9002
1075 2 6.24752 1.83007
1076 2 53.8712 51.2491
1077 2 7.01775 10.1668
1078 2 41.2828 48.4415
1079 2 91.6005 48.1681
1080 2 33.4415 67.6288
1081 2 53.0946 18.5237
1082 2 8.51245 70.0399
1083 2 14.9386 23.74
1084 2 37.3793 66.8599
1085 2 67.2585 97.2523
1086 2 83.1528 21.6937
1087 2 20.3579 19.2501
1088 2 69.4393 70.0686
1089 2 85.8403 86.1485
1090 2 76.011 65.5462
1091 2 5.37433 72.2268
1092 2 41.0421 75.5417
1093 2 45.3733 50.6653
1094 2 36.7093 86.9122
1095 2 93.6191 3.93306
1096 2 4.92989 60.2539
1097 2 84.5139 97.5932
1098 2 73.4717 33.3871
1099 2 66.5505 75.6784
1100 2 35.956 13.5503
1101 2 7.8439 26.081
1102 2 20.1416 16.1975
1103 2 98.4136 71.7855
1104 2 46.1994 34.2469
1105 2 75.6269 89.7015
1106 2 94.0933 93.5941
1107 2 42.1312 87.1227
1108 2 50.9184 69.9535
1109 2 96.943 71.5296
1110 2 99.0788 0.456554
1111 2 41.2646 50.7315
1112 2 67.195 48.8561
1113 2 76.0215 96.6955
1114 2 28.479 62.6094
1115 2 90.4887 28.7532
1116 2 75.5266 35.6667
1117 2 73.1341 2.3977
1118 2 3.52004 11.7971
1119 2 45.0592 8.00082
1120 2 9.46641 23.6633
1121 2 96.9906 9.03421
1122 2 38.5622 11.8481
1123 2 96.0934 27.9488
1124 2 53.2994 22.4014
1125 2 8.55675 87.946
1126 2 89.6189 86.4274
1127 2 9.05111 42.9029
1128 2 97.461 52.4635
1129 2 86.7367 72.1269
1130 2 4.59773 4.6257
1131 2 52.6384 44.2393
1132 2 7.97493 15.4314
1133 2 50.8174 55.6237
1134 2 57.7567 55.452
1135 2 30.8647 6.83327
1136 2 8.80351 51.9621
1137 2 95.3553 69.4113
1138 2 30.4742 87.3722
1139 2 81.114 89.56
1140 2 14.5705 90.8773
1141 2 10.6251 6.8963
1142 2 74.5685 31.2615
1143 2 87.6128 60.8398
1144 2 6.16115 19.6515
1145 2 27.8573 38.6135
1146 2 83.1475 23.3428
1147 2 99.0447 19.0504
1148 2 65.3608 6.40278
1149 2 87.1454 36.3764
1150 2 52.7 74.5226
1151 2 49.5942 60.1641
1152 2 50.6585 6.48464
1153 2 24.434 20.8244
1154 2 92.7431 94.7119
1155 2 9.1168 61.9479
1156 2 97.6496 81.7565
1157 2 56.861 20.363
1158 2 22.0877 63.2238
1159 2 61.1086 39.3042
1160 2 45.3021 35.5393
1161 2 19.422 60.8846
1162 2 49.4666 47.8637
1163 2 72.8703 41.3591
1164 2 77.6288 44.856
1165 2 93.4152 26.8538
1166 2 42.1209 49.7855
1167 2 31.4946 79.7701
1168 2 23.8431 13.4338
1169 2 50.5588 37.2308
1170 2 78.2533 10.8196
1171 2 82.887 89.3061
1172 2 87.459 22.495
1173 2 15.2373 48.5593
1174 2 71.1402 82.7578
1175 2 91.8044 26.2735
1176 2 54.7077 69.8247
1177 2 18.0418 28.2216
1178 2 43.5225 60.7449
1179 2 6.53545 11.7696
1180 2 64.7389 10.2631
1181 2 51.3165 94.552
1182 2 57.3713 96.2804
1183 2 97.3938 89.0595
1184 2 38.9836 10.2627
1185 2 97.765 61.3332
1186 2 98.9543 84.4363
1187 2 76.5215 91.4118
1188 2 50.809 51.7823
1189 2 34.437 5.97801
1190 2 94.8552 70.8388
1191 2 86.2865 11.3706
1192 2 99.5528 72.783
1193 2 56.0493 40.675
1194 2 49.5741 24.6675
1195 2 29.5987 6.66618
1196 2 85.3833 95.5757
1197 2 45.4503 37.0328
1198 2 42.9403 3.26255
1199 2 45.5552 12.7545
1200 2 81.4617 46.0208
1201 2 4.14269 41.4235
1202 2 91.4651 55.7134
1203 2 92.07 2.93771
1204 2 4.74425 87.4611
1205 2 25.6199 96.6319
1206 2 6.76415 99.0292
1207 2 66.164 46.1395
1208 2 40.6179 22.6633
1209 2 74.0161 15.8461
1210 2 52.2094 42.6799
1211 2 29.0488 86.0812
1212 2 2.64738 17.525
1213 2 91.7873 43.1198
1214 2 63.6908 25.9
1215 2 42.2081 83.4797
1216 2 65.9653 19.2967
1217 2 86.5258 8.06972
1218 2 26.7048 63.211
1219 2 30.7361 97.8556
1220 2 37.4991 73.3151
1221 2 83.5869 83.807
1222 2 85.069 38.0116
1223 2 78.4791 14.4835
1224 2 25.9054 89.732
1225 2 99.1188 50.6013
1226 2 20.0418 77.5053
1227 2 6.81193 96.6776
1228 2 75.2256 20.6162
1229 2 10.9642 2.27977
1230 2 79.0868 37.6065
1231 2 35.6292 49.7238
1232 2 91.2557 60.7637
1233 2 77.5147 64.4872
1234 2 29.4405 44.4968
1235 2 62.9026 98.8161
1236 2 30.8254 1.82903
1237 2 32.9776 64.4598
1238 2 63.9828 63.6095
1239 2 78.963 32.6415
1240 2 11.0726 14.615
1241 2 50.6737 89.8991
1242 2 14.0892 71.8114
1243 2 95.0858 16.669
1244 2 30.021 33.8671
1245 2 15.9365 24.641
1246 2 18.9701 25.8856
1247 2 23.7579 27.185
1248 2 76.2103 51.8467
1249 2 33.9143 69.3201
1250 2 71.7214 8.41452
1251 2 86.5367 33.9345
1252 2 97.1416 53.9389
1253 2 54.2272 21.4061
1254 2 33.6472 28.1872
1255 2 16.8277 75.311
1256 2 66.4861 5.06918
1257 2 20.5779 50.0393
1258 2 45.9108 95.87
1259 2 10.7126 78.8969
1260 2 73.4407 73.203
1261 2 7.06813 18.1171
1262 2 87.4622 32.4696
1263 2 66.8655 98.8694
1264 2 35.6699 82.9483
1265 2 26.8087 14.9993
1266 2 26.4415 88.1634
1267 2 7.61267 41.8935
1268 2 8.62639 1.27683
1269 2 17.3145 71.514
1270 2 7.84183 78.54
1271 2 21.3192 57.3361
1272 2 58.3981 47.4678
1273 2 40.0639 88.4184
1274 2 79.3131 28.9397
1275 2 81.3092 47.6758
1276 2 67.1878 37.9164
1277 2 46.3659 76.7566
1278 2 80.4991 55.3621
1279 2 35.9291 44.0499
1280 2 60.3267 17.3822
1281 2 59.3587 97.7831
1282 2 39.7505 80.6433
1283 2 66.5118 68.1919
1284 2 91.7376 81.9798
1285 2 48.0296 11.8202
1286 2 2.32531 8.04829
1287 2 98.2623 75.8896
1288 2 83.0778 1.12545
1289 2 57.5289 40.7447
1290 2 0.10123 79.1966
1291 2 45.3863 99.2794
1292 2 76.0738 30.7239
1293 2 60.4545 44.3695
1294 2 83.4997 72.7921
1295 2 65.3531 8.04446
1296 2 39.0227 29.3305
1297 2 2.12333 67.637
1298 2 19.0964 95.2359
1299 2 26.6494 59.9734
1300 2 23.9439 32.9395
1301 2 1.5438 37.8718
1302 2 3.01831 36.9434
1303 2 16.8919 59.0656
1304 2 73.5126 66.1935
1305 2 49.5062 87.4074
1306 2 58.1903 0.245054
1307 2 61.1469 6.33993
1308 2 63.2138 12.7404
1309 2 63.4613 55.4597
1310 2 51.77 13.2231
1311 2 7.05284 56.7691
1312 2 56.9848 28.6032
1313 2 38.1937 57.3104
1314 2 37.0461 2.54605
1315 2 0.668813 62.9531
1316 2 47.1757 43.2553
1317 2 16.0224 89.0469
1318 2 25.351 85.2208
1319 2 33.06 41.397
1320 2 3.85476 22.983
1321 2 16.7034 53.1513
1322 2 19.5479 1.82299
1323 2 26.6581 77.3117
1324 2 42.6912 14.919
1325 2 10.1467 52.9443
1326 2 78.1181 91.9383
1327 2 1.24881 66.2757
1328 2 99.1997 15.6167
1329 2 3.40635 14.6622
1330 2 78.8586 8.50387
1331 2 79.492 35.1293
1332 2 70.8245 65.1899
1333 2 29.0621 12.5226
1334 2 77.1438 42.4042
1335 2 4.57643 46.5287
1336 2 24.507 88.8072
1337 2 26.8549 6.87405
1338 2 52.09 64.6643
1339 2 94.6108 13.1344
1340 2 89.3513 38.5602
1341 2 24.0998 64.5022
1342 2 13.2121 8.24744
1343 2 79.9687 64.8681
1344 2 82.436 77.4051
1345 2 28.5894 47.8107
1346 2 38.2178 88.5932
1347 2 23.3533 80.6904
1348 2 46.0055 0.849547
1349 2 91.2051 22.671
1350 2 94.218 60.2859
1351 2 73.8105 90.2489
1352 2 95.6526 72.3888
1353 2 39.3122 21.5591
1354 2 36.1353 57.1444
1355 2 87.5463 11.6615
1356 2 29.5593 23.7498
1357 2 50.8504 40.2142
1358 2 85.9616 21.5725