ITEM: TIMESTEP
0
ITEM: NUMBER OF ATOMS
500
ITEM: BOX BOUNDS pp pp pp
0.0 21.777819
0.0 21.777819
0.0 21.777819
ITEM: ATOMS id type x y z
1 1 10.4396940719 11.5295591438 4.1022328849
2 1 7.2352260774 7.4334658616 10.4005416911
3 1 15.5464597827 4.9888542832 10.4415854755
4 1 2.8080069374 6.0346184004 5.1487746881
5 1 2.3330610161 3.1993086114 7.7580326759
6 1 5.1849188987 10.6229234943 16.7430997589
7 1 21.3503064752 1.4435525324 8.5729665029
8 1 2.2716120687 0.348528513 7.1590529288
9 1 0.047146147 11.3104104756 19.1596791465
10 1 6.6967398848 16.0362745099 13.8932393379
11 1 7.2552662443 4.0739321736 6.1672087314
12 1 3.4787141091 14.6066223238 18.972277094
13 1 12.1990193176 8.5135733816 11.8190031272
14 1 9.6077800795 1.0579649226 4.0719016097
15 1 20.5609779189 14.9397645899 18.4911177432
16 1 14.0779378919 10.8449845102 20.0466644521
17 1 5.9041720957 3.0207098067 11.6645679015
18 1 14.3542740239 2.8673501875 16.927923971
19 1 4.5923986705 4.263046616 16.7442766322
20 1 17.6027920128 7.9163082022 20.3415565925
21 1 17.5239077435 18.0160766529 13.6171170641
22 1 6.5474977979 19.9467428096 6.9761747827
23 1 1.7429775081 1.5203807579 19.9071986459
24 1 0.5718193224 20.1997294174 15.6856159084
25 1 1.0823994177 13.3669143149 9.6580450279
26 1 6.3378179077 9.5596489217 1.1624143914
27 1 1.4151472876 14.4035829261 15.0972092924
28 1 8.4403040874 20.9503195892 19.6792935522
29 1 4.2865488027 2.6675349959 20.7925338461
30 1 6.0420746901 5.4318429972 7.8480626152
31 1 4.0420487932 14.5556380539 9.7956571062
32 1 12.0612567546 9.0261714097 8.9841702724
33 1 18.1596253646 12.6557446088 3.3948202881
34 1 19.6073947361 8.1853627026 17.7290567585
35 1 10.6077014522 4.6422086804 7.4055791466
36 1 6.5770864495 11.6525238965 4.9847864044
37 1 6.6445935506 12.0361991961 21.3239890699
38 1 14.834930307 14.3725667385 1.2242316017
39 1 8.1082846856 1.5498535514 10.6338971195
40 1 7.0459533103 14.7628529128 8.1653303758
41 1 20.1273562804 13.2233505765 12.986484346
42 1 21.0728115455 14.9561238698 11.0610106747
43 1 8.8196662899 5.1136710217 14.3104052208
44 1 14.0893908469 21.0270417567 11.9008535355
45 1 20.6420959391 9.2169636153 20.2931582209
46 1 12.7329241104 13.1804001441 0.8663601866
47 1 9.7265099175 7.240568612 15.8847050274
48 1 16.2769888811 6.6184416566 6.8867204311
49 1 14.1719555677 16.9504065202 3.1597337409
50 1 9.8802343152 0.922530844 12.9406137258
51 1 4.3550219679 15.1536885415 7.2670197332
52 1 16.1189894976 0.4657108193 13.9842555946
53 1 10.6292573552 12.2431437923 10.7868845558
54 1 1.8559937176 3.2928637262 4.0603016544
55 1 0.5753116134 20.0865368075 12.7089131939
56 1 11.9644706825 8.7933201378 19.7245713802
57 1 16.5267477983 16.9221809423 7.291106001
58 1 4.8315326254 10.3204141261 4.1136213776
59 1 19.2458657363 19.0563131241 10.1153544002
60 1 8.7699686536 13.4624333535 4.5754503007
61 1 0.5059374999 8.5106680028 18.116197998
62 1 17.0382811087 6.1268276461 12.5263270883
63 1 10.2710048282 10.6190080602 19.9441915381
64 1 11.021409453 20.0485763268 4.1244636826
65 1 8.7348429916 2.3217489636 7.7983318767
66 1 0.2724879913 12.6262147574 0.7786367361
67 1 11.3695679609 17.267753552 0.9364847637
68 1 15.721493994 11.9926620692 11.7211503775
69 1 2.4799005741 10.629215324 20.9193245261
70 1 1.3677683357 6.8350475466 1.2277504617
71 1 10.2032400955 4.2286958087 21.4216850192
72 1 5.2244245157 21.2395658301 14.4166652975
73 1 6.1172817747 20.954509206 20.6014297822
74 1 5.1513087551 14.1167278898 20.6677798277
75 1 21.3198795954 2.4783578334 1.3495823323
76 1 9.9486070846 0.2966428593 1.7709169254
77 1 2.4571671444 9.9103225499 12.4830512953
78 1 10.7992761348 11.0555775444 8.4283883537
79 1 1.0427280715 8.4241209901 9.6055112663
80 1 12.8548724924 15.8165877118 12.472156288
81 1 6.1133876829 15.3745441551 4.0320011609
82 1 18.9733812294 18.2966309306 7.3500359081
83 1 14.8971667404 6.491750719 3.8548092033
84 1 20.4811282389 12.1840936716 7.4845655539
85 1 13.380509554 12.3616308076 3.7291285387
86 1 8.8813889845 6.1224224288 8.3901978992
87 1 18.1201206187 18.2614151084 19.9459089369
88 1 13.8639329268 7.033292993 1.7802336942
89 1 14.2826424216 18.4149925058 6.988464877
90 1 20.4852555711 19.4858429283 19.4197921099
91 1 2.2517983912 12.6607678805 3.5578385878
92 1 11.0016073178 3.5908844681 11.8628194457
93 1 4.54103612 16.2123105009 15.1841073635
94 1 15.1148870014 9.5649908029 18.0397931334
95 1 4.5511460369 8.0340332117 7.0208036316
96 1 1.2468489557 16.7138090279 5.0509369651
97 1 8.4514072906 14.3011805723 12.7555678155
98 1 17.8047061506 12.0099377597 5.7943114922
99 1 9.9621267546 15.7294820981 16.2018830633
100 1 17.4456251953 3.7776974306 9.0133693188
101 1 11.2405065077 2.3636479629 19.8065038908
102 1 0.4377814198 12.6486864177 5.8456300516
103 1 20.2412338026 19.5988593555 5.4347004649
104 1 5.2242592221 19.0591019916 10.796085031
105 1 18.5534482567 19.9053396912 0.3600881794
106 1 15.7046590866 12.1011798524 6.4962088564
107 1 12.8842536013 19.6029618611 17.0596113936
108 1 15.7513054327 13.6743922925 16.1208186166
109 1 19.3803940754 11.0229493626 21.6056339807
110 1 5.1265009882 0.0486884522 11.1668025282
111 1 6.2442917573 1.5021838656 0.5340099797
112 1 15.1855468773 18.4815884229 15.9030445644
113 1 16.8149709172 4.1210356361 6.4310685686
114 1 21.2397363504 21.5989958837 6.6412658998
115 1 12.4140964047 12.1676829961 18.6557458593
116 1 19.3323522066 2.1479519502 3.5774601849
117 1 4.1507098745 6.6390029667 14.2934829844
118 1 0.8677583225 8.5682690274 5.3209738629
119 1 8.4101418081 18.0530638829 12.7329328216
120 1 1.6626842139 3.3555664227 21.5290664358
121 1 2.1094363529 6.5036488127 7.27472625
122 1 2.3356974389 6.0408952034 9.8316815388
123 1 14.4218529918 16.4615876927 10.2846181428
124 1 2.044227465 9.8174503874 15.1782480413
125 1 4.9756181603 0.7958714842 5.8310408729
126 1 16.5238156327 1.9512856135 21.3098119275
127 1 20.7720509362 5.0181870454 2.2938803242
128 1 21.6085437151 10.4438553776 12.2592582894
129 1 11.3376906784 0.368445853 15.2285702655
130 1 13.8223320659 11.9828550818 15.5235959039
131 1 17.2276314049 8.5475925127 13.5217617947
132 1 10.171435333 14.4221881524 6.6478314767
133 1 4.4175415129 6.7328575265 9.2846142322
134 1 1.1595386304 15.518638619 17.3121195426
135 1 7.9694948629 0.0278727772 8.8154522819
136 1 8.2592043179 10.1171765503 3.2929048863
137 1 14.594489683 0.0237428316 1.6359062076
138 1 16.8712667971 14.3476498647 7.2576313154
139 1 17.9318731513 6.2157159921 5.1994052862
140 1 18.1981967132 12.7706994797 16.4893855542
141 1 8.5374677868 3.8300232141 18.358867364
142 1 10.5616134894 21.7106039394 7.5303279383
143 1 6.5957713826 0.3623282458 3.5717790053
144 1 3.0720799794 1.1627384453 11.3174867423
145 1 8.5982625286 17.7929125905 1.3956422017
146 1 21.7146038715 6.7761370218 15.9681134209
147 1 9.5764435401 16.5414441239 20.8117549492
148 1 9.3844391811 3.0472652436 5.7680483136
149 1 20.8431796886 20.8585167177 9.2695796971
150 1 14.773439764 3.8515048548 2.1006770963
151 1 7.8583846481 12.1201130527 19.4155147285
152 1 11.8731133852 13.4582123766 8.7464353246
153 1 10.4899971316 18.8783227917 19.9307001792
154 1 2.2479045172 7.6349540252 15.8999072518
155 1 0.4589897488 4.8317669547 5.6511778657
156 1 12.4267061975 17.3255926081 20.0899064895
157 1 8.6972551293 16.7529402842 8.3174693482
158 1 15.7603978899 17.7246378213 19.0522191119
159 1 16.7427262693 3.8387822529 14.1390569054
160 1 2.3118261182 9.9095842818 17.5566465566
161 1 17.1412468548 17.9926156263 3.8519693757
162 1 8.1670861035 9.7397442981 17.445423315
163 1 9.7446961386 20.1693092887 12.184535108
164 1 17.1210786344 2.2756923609 10.9236388057
165 1 15.77747954 19.7322177902 4.7974999921
166 1 6.6534741096 21.7448205953 17.1429644713
167 1 15.7421491665 9.7107795811 7.5610562231
168 1 8.1051242885 5.3231531693 0.6154307116
169 1 1.1735561414 10.6928294222 8.0541478587
170 1 20.0009506322 9.8884597974 5.6117704667
171 1 6.7717220045 16.1680503504 1.1379716207
172 1 6.4327940252 5.1515276222 13.5939646292
173 1 20.8456471155 8.62192696 3.3336953946
174 1 18.5443309728 1.0728304618 13.5051440121
175 1 17.4833916357 21.6804697535 5.5572690791
176 1 20.5146538846 17.1513212738 4.7433169962
177 1 16.8519402894 13.0211748872 1.270450667
178 1 10.4359968516 19.4435122926 1.7652470702
179 1 14.9892329058 16.0890134186 20.7717101134
180 1 21.4090035774 17.4878336575 12.135355566
181 1 14.9735060538 6.7625757561 13.2221784943
182 1 12.2126487479 14.8909016974 2.2233450174
183 1 19.8151686317 3.1253681248 9.7469967474
184 1 1.6876707767 16.0298737911 10.8764700098
185 1 13.1631242359 9.3572593741 3.7445729324
186 1 7.3871644762 15.5127475011 16.1542183865
187 1 3.5141333362 14.0890731086 16.393938818
188 1 5.2377231409 18.9336530431 13.6973260781
189 1 16.9331898476 14.8322564264 17.9531953783
190 1 1.5730055508 12.225462381 17.7744700445
191 1 20.0926955748 11.3676393173 14.5444279216
192 1 15.5420724233 11.8306729893 9.2349551426
193 1 4.2781353779 0.8485949307 18.194865578
194 1 2.2462136873 18.8325828384 6.3938742316
195 1 16.9806471997 15.508768258 9.6276569126
196 1 20.4453427089 11.9101716109 10.1892064689
197 1 4.6386647759 13.049712759 3.7136638916
198 1 11.5357521022 6.8402043164 2.2785003929
199 1 21.4907847322 16.0190107972 21.0199238943
200 1 2.919299868 7.4606336908 18.775363579
201 1 1.4001634947 20.5483395972 18.851556981
202 1 14.5620555416 4.9911389942 14.8297269327
203 1 1.3955002104 5.3906759504 20.3544980614
204 1 9.5982636081 1.2281034802 17.796136361
205 1 9.1810221561 3.1019349737 15.9321956995
206 1 14.3444156408 2.3964375183 0.3267698585
207 1 21.2347461809 4.8054131804 13.4011259619
208 1 18.8912516295 7.2032991415 7.5933198442
209 1 0.7726752759 18.2747916982 0.9211736503
210 1 15.1623916113 9.2394237333 11.6686917493
211 1 5.235342172 2.4694443899 3.1835946083
212 1 20.9128295094 12.6742805817 17.4309939854
213 1 11.5188185412 5.1202847275 15.6176512553
214 1 20.6586557927 4.1964835833 20.7306105778
215 1 18.1433571161 5.1421224355 0.6170799458
216 1 18.9721063559 15.5087867692 6.3954966791
217 1 13.3019375786 18.9253313029 4.6233754403
218 1 20.7604191853 9.9777547353 16.3245919267
219 1 17.0526601315 10.6665327057 20.7930305982
220 1 5.3501824916 6.6690430724 11.689155277
221 1 3.8725082545 16.6587982571 2.0140882702
222 1 18.9749400857 1.6488019432 16.0531632085
223 1 6.2768635345 9.5319743226 9.199699467
224 1 12.4821662447 20.732785093 7.1722807761
225 1 4.6330402186 4.6500682952 3.4232684353
226 1 5.715869966 13.9094655552 1.6566086379
227 1 8.5007632329 8.3254293588 6.9959603668
228 1 12.9758942281 6.3475308149 7.6748307362
229 1 11.2262794941 21.3586293043 19.2688398109
230 1 19.1181551612 18.2560991428 16.3349664441
231 1 18.9345245914 6.610950958 2.6918634331
232 1 18.8316280988 17.6677672247 1.462395137
233 1 12.4933718037 0.0121986275 9.9141055748
234 1 21.1615043267 15.5025853175 13.9977990025
235 1 15.093538641 0.6888931751 9.9306715262
236 1 10.8255343045 8.8592124136 3.7837621177
237 1 9.5723702169 11.5517812303 1.4996149541
238 1 4.6919749168 21.7364359172 2.1299136005
239 1 18.7383044822 3.9134318253 12.5791311127
240 1 20.352970783 13.3474839271 20.4214060547
241 1 8.1346247399 18.1553107431 15.6121967827
242 1 3.2190118753 1.0625641802 14.1123224548
243 1 9.858022682 4.3838695202 9.7445567606
244 1 16.7541739976 18.3279827144 10.8734561774
245 1 1.0626110025 20.1828842744 4.7310867908
246 1 0.2205193641 7.6483288727 13.0324451263
247 1 8.4349698284 16.7734421408 4.5965368917
248 1 19.5766309535 3.7132045974 15.0337415411
249 1 3.5383929554 12.3541416335 0.9631961299
250 1 12.3010405596 3.0466010201 14.607330974
251 1 0.0157839099 1.8985264514 5.8320060658
252 1 19.294011703 10.7419684574 18.9714033679
253 1 7.2668895018 15.7358690968 19.935115632
254 1 9.1541809942 12.259494361 6.512011713
255 1 12.6815426132 11.0227773178 10.7800482806
256 1 3.8570470919 19.1597960934 1.1784324128
257 1 0.6523454215 3.0860987971 14.7435142095
258 1 10.7607211196 15.0100311585 13.4798140131
259 1 6.5836981953 10.6424327179 11.8589996162
260 1 21.399708151 15.3326651914 6.3653812221
261 1 15.620659861 1.8283894609 3.2048408307
262 1 16.3045217065 21.0460864594 21.0613688261
263 1 8.9312111899 0.1984625712 15.5774877303
264 1 11.7876297834 10.4908281732 13.2586955412
265 1 10.0615150583 8.5127329756 18.0918488719
266 1 10.8111051927 7.2909585652 7.0441074224
267 1 5.4572435564 12.7679537323 8.5781443972
268 1 4.086633651 3.2380685559 5.8224521366
269 1 3.6523122911 12.2314360368 11.3827672792
270 1 12.052667365 10.5976573043 21.5982358379
271 1 6.9076733063 3.9428290499 20.6543459623
272 1 0.2185571826 4.5530463694 8.3724727145
273 1 20.3037598809 12.6959087871 4.5874379011
274 1 14.4631204343 11.0456231211 1.593052251
275 1 21.0393412155 6.3857421762 19.4297992355
276 1 10.2840303595 7.2202061335 10.2965051298
277 1 2.2404795876 1.5148302451 16.5459950347
278 1 4.1748468846 9.0100325213 20.6248751288
279 1 7.959211159 0.3112503314 6.3330625031
280 1 11.5827588711 13.5312497371 15.6638324271
281 1 21.333071727 7.6359767116 7.2423853177
282 1 4.8286901844 16.6598873658 21.5635564033
283 1 18.8897977423 2.3516144113 20.0424585019
284 1 1.3277354777 4.4778580137 2.0482524415
285 1 16.7982655878 2.4368767504 16.5701383604
286 1 13.8228519024 3.9144725873 4.5896494386
287 1 7.4163386958 5.7105261247 16.4094435362
288 1 18.421668714 10.8348652288 9.2546963
289 1 3.8172962567 19.386724234 18.9837063112
290 1 12.3505367511 21.3994857994 2.8095209313
291 1 10.3659624346 7.1846978351 21.7258987195
292 1 4.0203077787 16.1039930736 4.933222409
293 1 6.5117255524 7.2435242976 2.3771992108
294 1 5.2806047554 18.3087923181 16.3227591055
295 1 2.5743577262 17.5086038168 17.9993652257
296 1 11.528819569 18.5251525543 6.5394051604
297 1 6.7254739748 2.8575734712 16.7829416254
298 1 3.7411866993 6.7192631586 2.6091421298
299 1 1.6983412547 21.1049218507 9.7364423452
300 1 5.5796810682 4.2627310554 1.2416028968
301 1 3.185746039 17.4485220808 8.6380627995
302 1 6.1431553481 17.305723615 8.6938427628
303 1 11.6688134874 2.7779224049 8.6868597052
304 1 12.9138585863 6.0017321515 5.1243848375
305 1 5.2873835371 5.8356727972 5.5025499133
306 1 17.7569613313 15.5024877528 21.5555345437
307 1 8.175247559 2.3618933241 2.0526319609
308 1 17.3564404532 8.7115496541 10.1713835018
309 1 8.563968997 3.2724668387 12.8840802499
310 1 14.6436049804 15.5932381024 6.0891439614
311 1 13.0568452125 16.046519667 8.0573282913
312 1 3.6062715861 5.6254325637 0.3215699687
313 1 17.2588320507 0.5534364476 2.0493796614
314 1 0.0049437827 14.126135472 2.7354097066
315 1 17.8512497054 6.1312145699 9.9275196225
316 1 18.2299572666 20.5433289566 18.4192766383
317 1 20.960955876 16.3688098282 2.2532795007
318 1 16.7161845524 11.0571936763 13.5472975942
319 1 0.412851697 1.0096318844 12.9679525109
320 1 19.4769053114 21.2704933819 11.822317929
321 1 7.104331803 9.7771794979 19.8219275956
322 1 16.0841791783 6.9503998628 18.1540077762
323 1 15.626483032 15.0235166373 12.2344609758
324 1 14.7554665299 8.2435948484 5.7572835377
325 1 17.1341819125 19.8906411878 6.9182144241
326 1 6.039130329 2.9959024752 14.4751417904
327 1 18.6233252201 20.0223303527 3.6531032615
328 1 13.2713715385 12.4093220535 6.7864377124
329 1 1.7118857515 17.7634761659 13.630290249
330 1 10.1186559176 9.2075002818 1.0289335654
331 1 13.5412927961 6.8761856289 10.1605893258
332 1 12.234620825 2.264723309 3.4901298241
333 1 12.9417607635 0.7049665122 17.1758979781
334 1 13.182606455 2.4955583904 10.7470296226
335 1 7.471153684 20.2405606502 15.1927766777
336 1 16.7452098118 16.4899916309 15.9251845485
337 1 18.1453780977 14.123729023 11.6758176695
338 1 15.7634176023 8.1387313832 15.7225739561
339 1 19.4150447632 16.2211732021 9.4455801902
340 1 16.0027865398 9.287753287 1.7109791409
341 1 11.9903409893 14.655989155 4.8722863292
342 1 2.9163444002 3.0223261564 18.3027785911
343 1 13.5755384165 0.8837604462 14.494467427
344 1 12.3051328296 1.3767603971 0.1092830557
345 1 16.3522081612 20.5361331297 16.3264589392
346 1 16.3795395418 11.9521339836 18.3391810867
347 1 17.3680147107 2.5411472056 4.8506879594
348 1 17.2803933981 0.9118943394 18.7391649238
349 1 16.3962771024 6.9964039809 0.9165084059
350 1 0.9292040033 12.2220987969 14.3794820671
351 1 0.4130479152 20.5119621461 21.2328730707
352 1 19.3049820615 20.0197261611 13.9143688312
353 1 14.4022215946 8.725382707 0.1601749876
354 1 3.2067324521 10.8762676938 9.1662304437
355 1 11.1292092215 4.6841368619 3.1715301321
356 1 20.8837465388 0.4782056252 14.9782751783
357 1 0.4321248491 4.2351862521 18.1290194711
358 1 16.3709253255 10.5250925225 16.1757065605
359 1 6.2340363646 13.1791877729 12.6287736511
360 1 7.0215856731 1.3559166288 19.0582341456
361 1 11.7742050646 2.8841474193 17.0788701722
362 1 6.0441472851 13.7960383983 15.126937322
363 1 5.84891284 8.157523681 18.4885183427
364 1 20.0803723781 21.7729218218 20.7909425409
365 1 6.6131328777 7.9056810621 4.7418027844
366 1 14.9420861054 20.8286584567 8.0860462657
367 1 16.9241004393 21.0429330312 11.8877006039
368 1 12.2575097483 12.9630152615 13.3849206513
369 1 10.6554937471 19.0399490532 15.2736089729
370 1 14.1317245315 2.8704339266 19.2915756361
371 1 20.6179271334 21.1743724044 1.4939986724
372 1 7.9119591717 20.5501271206 1.5335905295
373 1 19.1115852288 15.2163816557 3.7053541292
374 1 12.0865251225 15.0765382221 21.0769129622
375 1 20.7121116272 9.6800778652 8.5621285535
376 1 2.011265647 5.5819333302 13.6960875736
377 1 13.8185226898 4.0337135508 7.222645467
378 1 9.1116547937 13.9848599291 8.8680491993
379 1 2.3766144764 18.4327601572 3.1867802677
380 1 4.364258812 16.3801427874 12.2994194188
381 1 19.2041690529 4.8468147743 7.5475659531
382 1 19.0684359649 15.3852888954 16.4688131375
383 1 6.4224321389 18.7102476824 1.1906515115
384 1 7.8349532393 4.6729924986 3.0599660676
385 1 3.8694515199 21.0336214891 4.5828179546
386 1 4.2194637557 12.3522611188 6.3200006028
387 1 19.5434106328 4.2364977124 5.0245126307
388 1 15.2146365991 7.9020713886 8.9500993101
389 1 14.3356428819 0.3181626111 19.9858437947
390 1 16.798115103 15.3732028592 4.2174181652
391 1 6.6326238079 18.5749828175 20.1254960191
392 1 19.3318720057 10.4089973649 2.6086035644
393 1 8.9405386298 18.8295036726 3.9245173885
394 1 2.3930375652 18.2752560013 20.6482616752
395 1 14.3392194532 14.3012724747 14.2952687655
396 1 3.215932274 19.903306514 16.8366291759
397 1 18.1728612697 15.2914994512 14.1413751542
398 1 8.5452768772 13.3602892846 15.3483813722
399 1 3.7423378748 4.9638908048 19.7274967946
400 1 5.3407204648 1.9544590773 8.1441932602
401 1 1.2183583417 13.6172313976 12.2927249172
402 1 2.7670474332 7.452040599 12.0696976195
403 1 18.1136852732 6.5378844153 15.2896245988
404 1 6.404931048 6.3453284241 20.8467083487
405 1 1.937627001 21.4745271548 2.2619039526
406 1 19.8294903788 6.5656633301 12.1048589972
407 1 15.6858415266 19.7606983863 13.6763383584
408 1 1.4192737487 15.4138232828 8.3415277404
409 1 13.7659384036 19.6431112304 21.0045176118
410 1 14.1299616171 14.8024086188 18.8402566885
411 1 2.6276325871 10.5063078469 5.7128053913
412 1 10.8181736194 17.2568981803 12.8245447017
413 1 8.5389114385 19.0591161472 10.0811344777
414 1 7.1788761886 0.922360977 13.4063027673
415 1 2.2575605843 15.2310847324 3.4459661494
416 1 10.0675002563 13.7160107935 20.6160082898
417 1 19.1977848853 8.8859869354 15.1406662768
418 1 12.8933044629 9.3493925726 6.3420536935
419 1 13.6245217403 19.3062926507 9.9031870475
420 1 5.8353687788 10.2645884294 6.9028804439
421 1 12.6550150519 5.0195492479 20.9803065571
422 1 15.5591120422 18.4479848127 0.9904136125
423 1 15.0136928809 20.1158704408 18.4440144985
424 1 3.7687730982 3.7515947546 13.9479323703
425 1 2.2171995346 4.7279719094 16.4304857005
426 1 2.2093444931 3.8667380036 11.3099655548
427 1 8.4752949447 14.3155741862 18.2718077014
428 1 6.9768130905 3.8040464138 9.132810856
429 1 0.982265006 13.8920067133 20.0070303459
430 1 9.7419686846 12.2269582994 17.6042489489
431 1 10.8500613554 15.3639708062 18.5781059745
432 1 21.6976167371 2.777272337 11.4194668243
433 1 0.1375127714 1.4730100815 16.9000649138
434 1 21.6588694237 17.7735553761 18.4517761132
435 1 4.446159527 4.4845411908 9.8400409546
436 1 9.0856586112 7.3671713494 2.5328387498
437 1 6.3926235314 5.8799804233 18.5954315362
438 1 18.6139740424 16.8304231509 11.8733662257
439 1 16.1667358413 13.3318106485 20.7522117787
440 1 18.7455214336 13.6199943495 8.6733027951
441 1 3.5476450441 11.7797385907 14.8622908699
442 1 9.1530282942 5.7513719487 11.8157560544
443 1 10.6442049968 2.5898600489 1.4421156319
444 1 7.1783400187 20.2397171953 11.8028831856
445 1 2.865069832 1.8491143223 1.7258122312
446 1 6.394999927 14.8167231792 11.0134533624
447 1 20.2637579474 6.505953777 4.7453168533
448 1 7.4108543877 12.6198643453 10.2191065433
449 1 13.081493348 5.2910663841 12.1295583106
450 1 5.1532476343 16.861238547 18.7144862993
451 1 9.7571774422 5.9018730114 5.1105888069
452 1 8.1992390933 17.4344215964 18.1682125764
453 1 17.4208490062 3.3653100367 2.3254690507
454 1 2.1977371333 13.4585695329 7.3042752659
455 1 21.2103487081 18.09555807 14.5952647556
456 1 0.8300530778 8.0679168847 20.5545090356
457 1 13.8758244871 21.3014006804 5.4626448911
458 1 19.7659845163 6.6149565523 21.5045470072
459 1 14.2748470513 14.4816755717 4.1765732123
460 1 5.6473658763 14.2333461505 18.0571304551
461 1 4.836870151 18.8887156025 4.1462894128
462 1 5.3389767148 18.0891005111 6.1587683021
463 1 19.0892505509 10.2566236276 11.8204931656
464 1 20.8319334051 18.843686695 2.7446252085
465 1 19.4380523756 14.5256617572 1.3197643603
466 1 10.0157056338 9.9350532234 6.3787316784
467 1 20.5774739635 8.5632414001 10.9148671358
468 1 0.1812650631 1.015866874 3.291386319
469 1 4.5115249974 19.8472471413 8.1446769456
470 1 9.749054098 11.0589748841 14.9989758664
471 2 7.057112047 11.0533137401 14.5783266213
472 2 17.4502257596 8.6879710273 4.3932152535
473 2 11.3027181144 16.7661933937 9.8778888441
474 2 2.1574516526 15.6982261367 0.2456487894
475 2 13.8875054559 18.2080638074 12.7495342708
476 2 15.8233878358 10.9163983343 4.1838047549
477 2 3.3390840982 20.4573636295 12.8202836536
478 2 15.4220256805 5.0536437303 20.3347070328
479 2 12.4066947774 1.3805340576 6.0001878864
480 2 4.4793772344 12.1166373128 19.0424885646
481 3 4.7767851484 9.1109846902 11.3563895493
482 3 7.1101710896 20.0325404476 4.8685841
483 3 7.215874743 12.0812363791 17.2097801267
484 3 18.4322324806 9.8362383297 7.2243234479
485 3 12.0258087809 1.6808541016 13.0072190074
486 3 9.8150705074 21.6323205201 10.2304584492
487 3 7.9953540629 19.7332352499 17.451955354
488 3 13.3312261318 14.1109247544 10.7237752674
489 3 4.0547234839 13.9366965401 13.3489195209
490 3 7.7291618213 12.9331916273 2.6231256674
491 4 20.8892558914 21.0207579848 3.7084907885
492 4 21.4231602487 3.256807498 3.5316366049
493 4 11.9726447691 11.0569687114 2.2072553469
494 4 15.7461042362 7.2092974061 11.211677031
495 4 5.4146302447 3.4590557075 18.7496287303
496 4 8.3428577118 10.5465508609 21.4163453158
497 4 8.766093944 16.4132751257 14.3993133847
498 4 3.3458809555 8.7258936146 9.9171832162
499 4 6.2050827542 11.4680818852 2.3928886049
500 4 12.5287400706 8.7796399652 1.5043862565
ITEM: TIMESTEP
500
ITEM: NUMBER OF ATOMS
500
ITEM: BOX BOUNDS pp pp pp
0.0 21.777819
0.0 21.777819
0.0 21.777819
ITEM: ATOMS id type x y z
1 1 9.5522468588 12.9381809256 3.8838995783
2 1 7.5320749549 5.1395008217 12.0471985191
3 1 14.9904568192 6.9739743518 10.9838975954
4 1 2.1765251021 6.9205729619 2.8819909796
5 1 0.8939579099 1.1657703533 5.1337179396
6 1 5.7306464339 7.4590299722 16.5984695607
7 1 20.3545148303 2.3132172852 9.2592006063
8 1 2.0071317814 20.4958650712 6.0195731942
9 1 0.5673450695 10.9554577237 19.0368788162
10 1 6.6890590659 16.5277373824 14.4972014144
11 1 7.5402830149 3.0356210793 7.0785675542
12 1 3.3866446771 14.8906797814 19.5606802255
13 1 7.112375876 8.7264996913 9.5095483957
14 1 10.5480753082 21.323200495 0.4577577776
15 1 0.0827271833 16.3004076587 18.4775786909
16 1 15.9540381987 9.8202468772 18.0171853617
17 1 3.6649989595 2.9041466438 11.8488091214
18 1 15.6521309872 21.6670868482 15.1576207445
19 1 3.2014578643 2.2320890295 17.6252911132
20 1 18.2293339855 7.3686487567 18.2719270439
21 1 19.7713788821 19.0137912792 17.5496142811
22 1 8.5978679145 20.9950372916 6.1072123645
23 1 0.8755253817 2.9470759517 20.3603954948
24 1 1.4628897113 21.0104540275 16.421088136
25 1 20.6949478747 11.5011647878 12.0700105668
26 1 5.990008716 8.5054556996 0.5407236457
27 1 21.3289794571 14.8600638701 15.7241371679
28 1 9.1156880458 19.8362040448 1.7898041745
29 1 4.140755669 21.627197506 0.4987758641
30 1 5.0831746706 4.6708284367 7.2480654084
31 1 2.3594285105 14.7369969794 8.5958713241
32 1 9.9877609898 7.2404904296 5.7720110056
33 1 19.5370998564 14.4323102649 5.2633107716
34 1 20.4484525815 10.0162202437 17.0200471942
35 1 10.7199049134 2.4879019626 9.0083305848
36 1 6.9163630917 12.9774480755 5.0094920333
37 1 5.1658513293 10.2604900616 2.2679146306
38 1 14.1351956981 14.0370742101 0.1981981885
39 1 9.3505365614 4.4198691262 14.7732749059
40 1 7.6495334039 14.5216489762 7.9089442505
41 1 20.3715899471 11.4820456049 14.981669687
42 1 20.7411268688 14.4569843161 10.7863370614
43 1 13.2498030044 5.2033296491 17.7667369587
44 1 10.6656857664 1.1646869068 11.6044656944
45 1 20.4932547818 9.1857536051 19.2991965661
46 1 12.0224269034 15.9026074835 0.2932407284
47 1 10.3163882785 8.5733014458 15.3284577167
48 1 15.2046593091 6.8664790372 5.10517201
49 1 17.4349375129 19.3225273614 3.8516788596
50 1 10.6023397531 1.6985357306 14.9816997404
51 1 2.0636765818 16.6673950512 7.0251718265
52 1 17.6378867504 20.1381042874 15.8391967902
53 1 11.2815605277 10.7709976368 12.6941545837
54 1 21.3962012688 3.6918932593 4.1995209357
55 1 19.3596674717 17.9777352781 14.2129965209
56 1 12.7920079867 7.8158336209 16.648047419
57 1 16.9631306465 19.0800073912 10.1242488971
58 1 5.7652367972 10.3865198246 4.8214978419
59 1 20.0667283567 17.8026886534 10.7620619799
60 1 9.6347220727 16.1017832783 7.6054037026
61 1 1.0811323842 7.5928642522 18.2924123493
62 1 14.5239874784 5.3295379903 13.1207517868
63 1 10.3705612566 9.5747165591 17.9307613936
64 1 10.5520856936 0.1141765317 3.1963376813
65 1 9.4854695324 1.8291969824 4.9462958515
66 1 20.7920055162 13.4898858188 0.6934917793
67 1 14.0925240218 16.6982115362 20.7423438133
68 1 15.3976271188 11.3231402642 10.979966699
69 1 2.5309571463 12.4286677256 20.4845761032
70 1 1.3689188578 7.6214500352 21.4586870582
71 1 10.2324445863 5.3872474684 21.1760410209
72 1 4.4427401917 1.4707430106 14.0614978164
73 1 3.4507246028 18.959511372 1.0286876938
74 1 4.2375304166 14.707125434 0.244554454
75 1 19.5041025406 1.1371275124 1.9206028443
76 1 11.1972296258 19.5020033767 19.5370454119
77 1 3.6328849521 13.2239505554 11.2649832519
78 1 10.5139938926 12.5581026684 9.1650712104
79 1 3.0691425872 8.0645419761 12.1112451248
80 1 13.9339213927 16.8336133836 10.7449511475
81 1 5.9430905827 15.885298473 4.4925846105
82 1 20.1129550442 18.3104679035 8.20100767
83 1 17.1938975633 10.0445865063 21.0105134809
84 1 17.7175977057 12.5673586771 4.4807514147
85 1 12.3607180993 13.8536333251 2.7325613857
86 1 8.1417138555 4.0316174357 9.6671880097
87 1 19.0935364257 17.4872759275 19.6853186036
88 1 12.823151139 8.1154354324 19.4128044789
89 1 18.0371839329 17.1688291159 6.6091163945
90 1 1.7921337478 20.3112799796 21.1724335252
91 1 3.5829418798 11.6486661737 3.8934406586
92 1 11.5216065376 3.2488305007 16.7008022255
93 1 6.4626930107 18.2510991733 12.1025316017
94 1 16.8957703279 8.5503955358 15.7131970806
95 1 3.7583371673 9.0139418576 4.7045864518
96 1 0.3434065878 20.0308694355 8.2987957395
97 1 9.5176532289 13.2941437328 12.8375530285
98 1 17.0505614031 14.420125793 6.3884988125
99 1 10.0576481888 14.4377989286 17.0715730784
100 1 15.0454667189 5.603727047 8.8930331488
101 1 9.8005163909 1.0413345089 18.9159657518
102 1 1.1169980565 11.2240609877 6.4510344731
103 1 19.8260767056 18.612157119 4.5385965687
104 1 4.9404513382 21.2448351911 10.2137300353
105 1 20.7652242433 18.9406067007 21.2358583741
106 1 13.5440529169 14.8155247458 6.831882794
107 1 12.4084672741 17.4965558918 15.9843041404
108 1 14.6211603246 11.6765733598 16.7173285412
109 1 19.8252047218 11.7029580587 20.5683745374
110 1 6.7423840157 0.5904001575 12.2417558919
111 1 5.7336522085 1.1586699132 2.3811525383
112 1 17.2680658459 16.7321078403 14.6299694524
113 1 12.7145569157 5.1863309725 7.0379625929
114 1 16.8150157795 0.8135332955 7.7542335354
115 1 13.1248895724 10.3873578351 18.2750343031
116 1 19.3496697105 1.7152667579 5.1155953097
117 1 7.7507207732 4.3709173802 16.579795952
118 1 0.0280328442 10.0874957786 8.8894180308
119 1 8.9384486125 16.1236967731 12.7378683287
120 1 2.7450315826 2.596481377 0.62690588
121 1 0.5305368531 7.5667554783 7.4496541855
122 1 2.6265532783 7.2213289978 8.9810194575
123 1 11.8440068945 20.6010809015 12.2094722352
124 1 3.9004089073 6.7054468747 14.7734158084
125 1 6.7350117884 2.3321128099 4.6175453003
126 1 16.166359085 5.2207575666 1.5976602197
127 1 20.1550014794 3.1781207535 0.2860507815
128 1 19.3981856824 5.2531605657 14.1216616547
129 1 13.2549225341 21.6139361209 14.2109881704
130 1 12.1531112396 10.3596555782 15.6041047985
131 1 14.2336231644 9.0541946716 12.1656962057
132 1 12.0133364062 18.6218785196 4.5113597038
133 1 5.0814106673 8.1863385667 7.7668087014
134 1 2.6322255291 16.0044312007 17.3499698276
135 1 7.3820861065 19.5543234979 9.9004567623
136 1 8.0170103617 10.9200114922 3.5022537537
137 1 10.9453245046 2.4361691891 21.4744067235
138 1 15.4094241633 16.6799490927 7.6642776407
139 1 15.5576474839 4.7212484433 6.3238605035
140 1 18.6058315337 14.1155893454 15.4320406461
141 1 8.5062876123 20.4521604729 19.3624415303
142 1 9.0436748961 2.7789228779 12.3117861711
143 1 7.4687620439 20.9201396699 3.5787476896
144 1 2.2906844293 0.6597498799 10.1748834151
145 1 7.50365403 17.7262110509 1.7952782471
146 1 20.7670283178 6.7093664465 17.7872462198