ITEM: TIMESTEP
0
ITEM: NUMBER OF ATOMS
8100
ITEM: BOX BOUNDS pp pp pp
-17.4117144807 35.3972157177
-17.4117144807 35.3972157177
-17.4117144807 35.3972157177
ITEM: ATOMS id type x y z
2476 1 -13.9521 -13.6946 -15.2843
2891 1 -16.0213 -15.2575 -16.7014
3356 1 -10.9282 -13.7156 -15.8035
7711 1 -11.9072 -15.5313 -13.9133
1711 1 -10.7875 -16.0087 -16.9135
3950 1 -13.5646 -16.4666 -15.5784
5481 1 -7.88288 -15.1079 -16.6846
1782 1 -8.77568 -15.3686 -14.0034
1536 1 -6.00055 -15.5903 -14.4716
5238 1 -3.24847 -14.7993 -13.9864
4163 1 -3.72729 -17.1332 -15.9407
2298 1 -5.03638 -15.1038 -17.3532
5082 1 -1.10102 -16.2854 -14.9348
7975 1 0.876181 -16.3847 -17.247
7532 1 1.50281 -14.7246 -14.8032
1770 1 4.04812 -16.6977 -15.7174
5831 1 5.66003 -13.8616 -14.8044
6887 2 7.85583 -14.4179 -14.1105
774 1 7.33483 -16.226 -15.4978
570 1 -16.2465 -10.902 -17.2502
3372 1 -15.5698 -10.6022 -14.7546
2987 2 -15.2642 -13.0157 -17.1339
3063 1 -10.4584 -10.8196 -16.3912
6136 1 -13.1839 -11.7441 -16.9164
100 1 -12.2492 -11.533 -14.3872
2561 1 -9.58017 -11.7355 -14.1531
769 1 -7.18097 -13.3187 -15.0937
2275 1 -8.44146 -12.2476 -17.305
1016 1 -4.44748 -13.0739 -15.8025
6342 1 -4.51796 -10.9125 -13.6678
7432 1 -5.9226 -11.8431 -17.352
3012 1 0.310268 -11.6266 -15.2175
2448 1 -2.20615 -10.8386 -15.2995
2621 1 -1.61247 -13.6254 -15.6225
2228 1 1.50082 -13.6145 -17.3104
6046 1 3.60761 -13.2813 -15.9032
1916 1 2.60287 -10.8615 -16.5195
5440 1 4.55742 -10.7674 -14.0111
3308 1 8.05384 -13.0624 -16.0928
1528 1 6.94971 -10.0861 -15.601
1114 1 5.61897 -12.3633 -17.0236
2047 1 -15.4122 -8.28205 -16.315
3868 1 -17.076 -6.14297 -16.1891
7805 1 -11.8489 -6.19683 -16.3761
1757 1 -12.937 -9.55905 -15.9528
6915 1 -10.7611 -8.38747 -15.4979
1950 1 -8.05145 -8.77603 -17.0588
760 1 -7.01944 -6.98185 -15.1108
7095 1 -8.197 -9.15777 -14.1485
7055 1 -5.69563 -9.62684 -15.694
7104 1 -3.81903 -7.71182 -15.309
7797 2 0.302785 -9.62422 -16.5888
6736 1 -1.2888 -7.80172 -15.7226
3762 1 0.853447 -9.04241 -14.225
7396 1 -1.87813 -6.44306 -13.6403
6788 1 1.03322 -7.25542 -16.6439
7769 1 4.72037 -8.37167 -15.1371
6757 1 2.78021 -6.81445 -14.3742
2935 1 3.55677 -6.59028 -16.9256
2714 1 8.10881 -8.19388 -14.0198
2441 1 6.4839 -7.79329 -17.1739
6001 1 -14.2709 -5.74748 -15.2584
7760 1 -15.6094 -3.75124 -15.2069
2242 1 -13.0202 -3.39239 -16.0239
449 1 -10.6788 -3.44149 -17.3475
7825 1 -10.3538 -4.11598 -14.2319
4470 1 -8.96141 -5.58752 -15.7083
7783 1 -6.61448 -3.04793 -17.0444
2285 1 -6.70704 -5.72421 -17.2135
3625 1 -8.22936 -2.65927 -14.9644
6103 1 -2.40826 -2.40606 -17.3934
6066 1 -5.55483 -3.00939 -14.314
6244 1 -3.78412 -4.9571 -15.6158
2564 1 -2.72765 -2.88854 -14.6332
3683 1 -1.06328 -4.74256 -15.2575
7287 1 0.918564 -2.38607 -13.7346
7713 1 -0.0297631 -2.46322 -16.3356
4090 1 1.6371 -4.57906 -16.1579
3793 1 4.53141 -4.25128 -15.3475
1688 1 6.58571 -2.42217 -16.7685
435 1 7.03926 -5.93658 -14.9427
327 1 8.7666 -3.828 -16.6966
5265 1 5.93586 -4.83925 -17.3985
2268 1 -15.7688 -0.952139 -15.5017
7829 1 -15.0231 1.34008 -14.2547
1911 1 -13.2429 -1.11901 -14.4589
298 2 -11.1236 0.201232 -13.8809
6260 1 -10.5114 -1.36401 -15.794
3565 1 -12.9404 0.904321 -15.6941
7025 1 -8.79525 1.06157 -14.0717
2069 1 -6.42027 1.15489 -15.2082
5794 1 -7.88911 -0.335029 -17.3775
3656 1 -4.52536 -1.04649 -16.0859
2127 1 -3.92781 1.43598 -15.8407
6217 1 -1.74779 -0.10675 -15.6883
2129 1 1.273 0.118005 -15.2437
5304 1 2.97486 -2.18794 -15.7193
445 1 2.43033 -0.269551 -17.3654
7663 1 7.42197 1.09219 -17.2466
524 1 5.54955 -2.15454 -14.0391
4362 1 5.22178 -0.48057 -16.1789
2947 1 8.09796 -0.892479 -14.7887
1115 1 -17.1505 3.68679 -13.7728
7861 1 -13.745 3.46311 -15.1609
7087 1 -16.1685 4.86877 -16.6037
7132 1 -16.9511 2.36263 -16.3463
5556 1 -11.2306 4.78205 -15.9544
4520 1 -11.0927 2.57783 -14.2642
2884 1 -10.0443 1.46392 -16.5725
5456 1 -7.58825 3.72273 -15.6142
8068 1 -5.061 5.16025 -15.0489
879 1 -3.24743 3.59208 -13.8246
81 1 -3.3426 3.80175 -17.0
6422 1 -0.395564 4.93977 -14.4011
632 1 1.2652 2.35598 -16.8848
479 1 1.02245 2.49938 -13.9296
1850 1 -1.13824 2.78253 -15.4405
239 1 3.39355 1.71232 -14.8824
6191 1 4.45928 1.97689 -17.3991
7778 1 2.42235 4.51148 -14.7721
6516 1 5.01555 4.21857 -16.1835
5219 1 7.0756 2.00462 -14.7142
4083 1 7.73135 3.78649 -17.2156
4443 1 7.15059 5.11159 -14.5965
226 1 -13.721 8.4988 -16.0511
7014 1 -15.0137 5.78552 -14.3671
5951 1 -11.9999 6.82975 -14.0957
6434 1 -11.119 7.3946 -16.872
5510 1 -13.5009 5.7187 -16.8214
1765 1 -8.67713 6.29009 -15.9935
1556 1 -9.61721 8.45715 -14.7818
6587 2 -7.19506 5.53853 -13.7866
3070 1 -6.68232 7.56753 -15.5682
559 1 -2.52571 6.21601 -15.9995
5515 1 -4.08016 8.32415 -14.149
6048 1 -4.89117 8.93494 -16.9777
6446 1 0.662808 6.02484 -16.9964
4714 1 1.14115 6.98943 -13.677
7702 1 -1.11458 8.38118 -14.7007
6413 1 2.9938 6.64624 -15.8589
66 1 5.60361 7.43228 -15.4295
2772 1 8.40471 7.53581 -15.1364
5426 1 -14.8192 -15.377 -13.2247
4499 2 -16.6115 -15.149 -11.3486
6170 1 -14.4801 -15.8881 -10.2544
7328 1 -16.0897 -17.3804 -11.7128
7346 1 -10.3257 -17.3167 -10.3716
7654 1 -11.3757 -14.8682 -11.3646
2980 1 -12.7809 -17.3256 -12.1167
7953 1 -7.35756 -17.1221 -12.7058
3890 2 -9.09635 -15.6012 -11.551
7575 1 -7.11405 -14.6853 -11.3568
349 1 -4.6011 -15.5461 -11.8097
4183 1 0.317127 -16.9821 -12.8777
8019 1 -1.93457 -15.6436 -11.9194
2341 1 1.32697 -14.8041 -11.4392
554 1 -0.942585 -13.9064 -9.91592
6597 2 -0.350316 -16.3707 -10.4609
5662 1 3.26779 -15.9166 -13.311
5060 1 4.4554 -15.5339 -10.9765
836 1 8.75607 -17.2697 -10.6498
454 1 6.31495 -15.6479 -12.6527
3493 1 -16.3855 -13.1044 -12.8981
4920 1 -16.1902 -9.93147 -11.8482
772 1 -13.647 -10.1802 -12.8461
2685 1 -13.7932 -12.9858 -12.4337
4700 1 -15.5453 -13.1423 -10.4545
3893 2 -13.8956 -11.3888 -10.2934
6273 1 -11.559 -11.6276 -11.932
7307 1 -8.06779 -11.6989 -10.3432
6528 1 -9.21749 -13.2147 -11.9738
787 1 -7.02301 -11.4524 -13.047
1104 1 -5.18863 -13.3221 -12.9767
5460 1 -5.45901 -12.4637 -10.5909
7018 1 -2.86224 -12.9843 -11.6338
6366 1 -0.516064 -12.6334 -12.9155
2323 1 -2.27848 -10.4221 -12.2367
2633 1 1.09618 -10.3127 -11.7712
5097 2 -1.0241 -11.6116 -10.6307
939 1 1.19867 -12.0985 -9.94764
2607 1 2.4613 -12.3446 -13.186
4526 1 3.86102 -11.0019 -11.0632
6900 2 3.0984 -13.3013 -10.6384
5851 1 4.71308 -13.1894 -12.489
1693 1 7.33905 -11.5746 -13.3898
2799 1 6.12601 -10.1377 -11.596
6173 1 5.82208 -13.2906 -10.0398
3615 1 7.8912 -13.5457 -11.5316
1394 1 -14.683 -7.71975 -13.3716
370 1 -14.831 -7.62741 -10.3996
4553 1 -10.761 -8.76023 -12.59
6235 1 -12.6412 -9.40125 -10.0684
7029 1 -10.9749 -6.80729 -10.2288
6841 1 -7.68503 -8.3105 -11.4812
7750 1 -9.48872 -6.3873 -13.1466
8082 1 -7.70597 -6.39377 -9.96259
4501 1 -9.80226 -9.57695 -10.3075
2530 1 -5.1416 -9.8184 -10.8079
5360 1 -4.80819 -6.83248 -10.2875
3571 1 -5.58369 -8.3339 -13.3388
6452 1 -3.38841 -8.13178 -12.0854
1429 1 -1.87275 -6.62483 -10.1626
5008 1 -0.256176 -8.08897 -11.9427
7372 1 3.42168 -8.84714 -12.44
3316 1 5.0929 -7.91887 -10.1115
7573 1 2.48636 -8.01366 -10.047
5754 1 5.95843 -7.42949 -12.8581
3730 1 8.18533 -8.54347 -11.2613
4851 1 6.86655 -6.18708 -9.90451
6174 1 -16.5616 -2.40112 -13.1384
2823 1 -15.7887 -4.96535 -12.0038
3492 1 -16.5439 -2.3405 -10.2769
786 1 -12.3866 -6.03071 -13.52
2502 1 -13.1679 -5.82262 -10.8283
4534 1 -13.4376 -3.6842 -13.6224
2140 1 -10.9772 -4.03436 -11.5204
6448 1 -13.3677 -3.21967 -10.4668
2852 1 -7.7751 -4.25705 -12.3995
6453 1 -5.63006 -5.66216 -13.0628
1917 1 -3.18309 -5.22693 -12.0311
7646 1 -5.78877 -4.3646 -10.0987
127 1 -3.74149 -2.633 -12.2888
7146 1 -0.534893 -3.74202 -11.2765
5958 1 0.593987 -5.81798 -13.5312
6555 1 2.60615 -4.18678 -13.2047
6087 1 1.47448 -5.77353 -10.837
3933 1 4.13854 -5.73836 -11.2246
5321 1 4.45502 -2.6855 -11.5786
4451 1 8.67292 -5.43827 -11.7845
2101 1 5.91284 -4.60154 -12.7751
1625 1 7.5906 -3.73326 -9.9979
6877 1 7.89053 -2.46673 -12.4014
3365 1 -14.7642 -0.579806 -12.1979
5133 1 -12.8412 1.40353 -12.6495
768 1 -12.0324 -1.36365 -11.8295
1920 1 -10.1772 1.30899 -11.6508
6978 1 -8.22655 -2.12891 -10.9081
3172 1 -9.67527 -1.26313 -12.9087
5421 1 -6.5319 -1.07421 -12.8566
2008 1 -4.11378 -0.123405 -13.4906
4547 1 -3.41487 -0.401062 -11.0581
6675 1 -6.01396 -0.387332 -10.2895
1537 1 0.83807 0.286854 -12.2633
739 1 -1.34852 -1.42359 -12.9207
7070 1 -0.821521 -0.131084 -10.3119
5127 1 -1.94935 1.32545 -13.1737
1876 1 1.72082 -1.96413 -10.9965
7425 1 3.92775 -0.540518 -10.3438
5610 1 3.28359 -0.760557 -13.3276
4683 1 6.43387 -1.12888 -10.0247
2196 1 5.6692 0.153953 -12.3722
52 1 8.07792 1.05003 -11.5964
7289 1 8.93686 -1.11419 -9.96312
1725 1 -15.0108 1.64079 -10.2053
3126 1 -14.3814 3.45461 -12.7821
1840 1 -13.7599 4.25753 -10.3417
7176 1 -17.077 3.02151 -10.4442
5559 1 -11.4009 4.45975 -12.2577
4758 1 -8.97659 3.81887 -13.3982
380 1 -7.41195 1.64377 -11.5056
1544 1 -7.4322 4.68974 -11.255
1303 1 -9.6726 3.42448 -10.1741
4868 1 -6.16384 3.40912 -13.1615
721 1 -4.60942 2.19356 -11.6129
3541 1 -4.74585 4.55408 -10.4971
1629 1 -2.58026 1.83745 -10.0411
5684 1 0.0717782 2.35466 -10.1347
1428 1 -1.47153 3.81676 -12.117
2917 1 3.33597 1.66609 -12.2992
838 1 1.81399 4.58552 -12.1974
379 1 4.41419 4.93494 -12.4339
6663 1 8.7023 3.74885 -12.5772
4461 1 5.83539 2.75391 -12.4228
2617 1 7.08416 3.75311 -10.3292
7298 1 -16.4278 8.46014 -12.7956
5899 1 -16.6779 6.73722 -10.6303
88 1 -13.7515 6.45911 -12.0252
7161 1 -13.7215 8.73845 -13.3004
3889 2 -10.0328 8.21387 -10.3566
474 1 -11.424 6.26073 -10.286
7660 1 -10.9531 8.91583 -12.3834
1992 1 -9.12913 6.67198 -12.4869
949 1 -6.08894 7.34499 -12.8991
2300 1 -3.07833 5.81525 -12.7818
7697 1 -5.42162 7.28077 -10.1287
519 1 -2.91361 6.40027 -10.0587
4830 1 0.0727824 5.7916 -10.5547
3115 1 -0.243409 8.7141 -9.89907
7119 1 -1.41672 8.0241 -12.0718
1281 1 3.98892 7.6081 -13.4584
5798 1 2.77734 6.14328 -10.0935
2672 1 2.18466 8.02166 -11.4959
748 1 5.21568 8.203 -11.1523
830 1 6.67988 6.95503 -12.9049
7755 1 6.14996 6.05997 -10.0415
7319 1 8.06367 8.17087 -9.96618
724 1 -16.7455 -16.2917 -9.0292
3862 1 -14.8566 -14.5685 -7.66218
4494 2 -14.5361 -16.9917 -8.14441
6661 1 -12.1905 -16.161 -8.55354
1896 1 -9.49001 -16.4699 -8.01027
3396 1 -7.00847 -15.6471 -8.16319
2533 1 -9.33746 -14.1497 -9.41357
3994 1 -9.04012 -13.8202 -6.66011
6251 1 -5.08289 -17.2075 -8.18984
5292 1 -4.26361 -14.2932 -8.9836
275 1 -3.35561 -15.2256 -6.69042
4672 1 0.639471 -16.6708 -7.78596
5218 1 -0.253855 -14.0309 -6.77702
6183 1 -2.17466 -16.6595 -8.63263
7412 1 1.78366 -14.8304 -8.94749
5693 2 2.87688 -16.4167 -7.45151
3657 1 4.40084 -14.8544 -8.18293
718 1 4.96047 -16.9091 -6.22643
5677 1 7.0474 -15.3514 -9.11648
7812 1 -14.6273 -11.9124 -7.72614
5478 1 -16.3377 -10.0825 -6.52776
2782 1 -17.1025 -13.197 -8.16799
2663 1 -12.0775 -10.9687 -8.24007
4853 1 -12.7638 -13.3005 -9.34098
6853 1 -12.1052 -13.2664 -6.53239
5656 1 -9.40683 -11.8938 -7.96997
3916 1 -6.78884 -13.1326 -8.62473
163 1 -6.7447 -9.91521 -8.4218
467 1 -7.32235 -11.3219 -6.38616
7447 1 -3.31393 -11.4551 -9.52246
5954 1 -4.37468 -12.2826 -7.01134
3281 1 -2.81563 -10.2648 -6.8033
7996 1 -0.814373 -11.6254 -8.13717
2458 1 3.45983 -12.3596 -8.49353
6265 1 1.51679 -11.8123 -7.18847
5337 1 7.5041 -10.7613 -9.32879
1873 1 6.01959 -11.7779 -7.16487
4115 1 8.21739 -13.1049 -8.58772
6539 1 8.76147 -10.3109 -6.46537
8029 1 -15.1951 -9.77602 -9.11976
6030 1 -15.5305 -7.33573 -7.17687
1778 1 -11.3548 -8.57894 -7.97414
7221 1 -13.141 -6.54938 -8.08012
1945 1 -13.4446 -9.24127 -6.5538
3340 1 -10.2234 -6.29258 -7.65502
5598 1 -6.14994 -7.21393 -7.34736
7318 1 -8.42456 -8.02353 -7.98449
5332 1 -3.83862 -8.44795 -8.56091
3817 1 -1.34604 -9.37759 -9.64727
833 1 -0.937002 -7.76773 -7.22921
2092 2 0.257803 -7.47197 -9.36845
6846 1 0.89307 -9.61223 -8.17947
2363 1 3.6658 -9.71843 -6.77386
5358 1 1.62633 -6.38681 -7.66231
7273 1 4.46929 -6.59618 -7.99298
1053 1 6.17023 -8.92202 -7.29275
4410 1 8.98387 -8.26793 -8.66907
5480 1 -15.4795 -5.15897 -9.25938
1721 1 -14.5587 -4.81679 -6.27033
101 1 -12.2032 -4.12304 -8.02322
1260 1 -7.77234 -2.86329 -8.03064
4059 1 -9.31926 -4.38258 -9.6098
3647 1 -5.93449 -4.3697 -6.68157
5280 1 -3.81992 -5.64958 -7.88718
4355 1 -2.98027 -3.23327 -7.11157
7473 1 -3.13348 -3.42303 -9.76468
5894 1 -0.671532 -2.33204 -8.64054
3041 1 -0.768634 -5.25412 -8.21132
5455 1 1.34805 -3.36225 -7.3895
6398 1 3.11217 -3.74157 -9.60359
5093 2 3.37683 -4.29364 -7.05025
1993 1 8.48031 -4.91721 -7.66458
812 1 5.48586 -3.92405 -8.1984
5102 1 -16.486 -0.0833437 -8.85069
932 1 -15.1174 -2.27646 -8.19384
2038 1 -14.1037 0.857212 -7.93367
12 1 -13.5354 -0.914478 -9.81079
4722 1 -10.8545 -2.03506 -9.27302
5856 1 -12.911 -1.93165 -6.88175
5897 1 -11.1952 0.147593 -7.78259
535 1 -9.18005 0.21435 -9.5021
5730 1 -8.2994 0.563353 -7.03971
6115 1 -9.81156 -2.13295 -6.43301
5503 1 -5.08113 -1.95446 -8.01347
1531 1 -5.46181 0.776588 -7.41214
7374 1 -2.60231 -0.525145 -8.0923
326 1 3.63075 -1.79954 -7.3404
8062 1 1.73905 -0.0665059 -6.37221
6544 1 1.66757 0.384032 -9.16174
2903 1 4.0516 1.22378 -7.4606
4190 2 7.78862 -2.17164 -8.2171
4680 1 5.90249 -0.77806 -7.22033
4251 1 8.53686 -0.281396 -7.14403
1730 1 -15.8613 5.08211 -8.66603
1784 1 -16.5676 2.47969 -7.46342
4292 1 -13.5043 4.29529 -7.84076
1194 2 -12.3278 2.3772 -6.68263
3967 1 -11.9472 2.29441 -9.49983
46 1 -9.94745 2.68133 -7.62954
387 1 -10.9592 5.11656 -7.57062
4833 1 -8.51242 4.96747 -7.43528
7075 1 -7.2544 2.34934 -8.90603
5686 2 -3.2571 1.76772 -7.23163
4208 1 -2.85796 3.91594 -8.77852
1887 1 -5.04196 3.62135 -7.26449
464 1 -2.43718 3.73978 -6.13366
7143 1 -0.622612 1.52739 -7.29529
7837 1 -0.117534 4.33476 -8.45304
6221 1 2.9429 3.24544 -9.50429
1486 2 1.61788 2.33209 -7.50353
3280 1 2.34415 4.65991 -6.95343
3384 1 5.72408 1.75986 -9.52739
1999 1 5.71434 3.86317 -8.04784
1119 1 6.79259 1.88098 -6.53554
3127 1 8.55015 1.76866 -8.69882
2948 1 8.88094 4.05547 -7.19325
2752 1 -13.9787 7.15179 -9.20758
2320 1 -16.58 8.34985 -8.09572
5062 1 -10.9533 7.79528 -8.19154
7637 1 -12.7773 7.22633 -6.17054
5520 1 -7.52861 7.66001 -6.18535
5144 1 -8.16211 6.76703 -9.73118
459 1 -6.00134 5.44902 -8.54699
3044 1 -4.12856 7.52412 -7.76485
6656 1 -1.65251 6.33092 -7.37984
3613 1 1.15865 6.74108 -8.1092
4565 1 3.24158 8.98476 -9.24059
6130 1 4.3175 6.26909 -7.94987
4827 1 5.94504 8.37662 -8.28047
6167 1 6.61438 5.63882 -6.33241
6554 1 8.50111 6.40595 -8.24949
6681 1 -16.1583 -15.7649 -3.995
6677 1 -13.9334 -14.3139 -4.81257
5709 1 -13.6683 -16.0348 -2.64967
6009 1 -10.293 -16.8696 -2.8705
1293 1 -10.9657 -15.5921 -5.4489
4756 1 -13.345 -16.7629 -5.81661
6673 1 -9.44591 -13.9261 -3.75584
4602 1 -6.62647 -14.9695 -3.22216
7699 1 -6.33615 -13.7144 -5.9436
58 1 -8.10251 -16.0568 -5.478
4757 1 -5.36358 -16.6269 -5.50951
6017 1 -3.14911 -16.8424 -3.60197
6179 1 -1.15764 -16.5843 -5.94722
1442 1 -1.60814 -14.8272 -4.01055
5726 1 1.26007 -15.5137 -3.41065
6580 1 2.19342 -14.477 -6.03678
6412 1 3.83262 -15.6876 -3.63914
3593 2 2.6704 -13.6554 -3.73172
3769 1 6.99762 -15.2254 -5.79482
3204 1 8.40383 -15.9925 -2.73642
4258 1 -16.5544 -10.5161 -3.75981
5042 1 -16.5235 -12.5261 -5.80367
1564 1 -15.1143 -12.9585 -3.17423
5943 1 -14.1148 -11.3042 -4.97794
7932 1 -11.1789 -10.6261 -5.85181
5264 1 -11.9248 -12.4424 -3.34152
5032 1 -9.51244 -11.047 -3.80281
1773 1 -6.52895 -12.2097 -3.87703
4415 1 -4.3449 -13.5868 -4.11415
7245 1 -2.35539 -12.8575 -5.468
7520 1 -3.76422 -10.5657 -3.83865
6321 1 0.819173 -12.4611 -4.61207
49 1 -1.12559 -10.0954 -4.38019
3729 1 -1.9118 -12.2736 -2.62547
6726 1 4.61081 -13.3892 -5.1122
2149 1 3.29552 -10.7351 -4.01995
542 1 4.68914 -13.0982 -2.43663
3252 1 7.96437 -13.3007 -2.89619
2680 1 6.31263 -11.1565 -4.53737
4270 1 7.92597 -12.9032 -5.81935
5823 1 -16.5944 -6.5542 -5.03466
122 1 -14.7986 -8.33631 -4.11113
7399 1 -12.101 -9.0977 -4.01269
2909 1 -10.1692 -6.21383 -4.31096
6684 1 -12.5228 -6.53163 -5.27153
1312 1 -9.41637 -8.55698 -5.62327
3486 1 -7.48186 -9.41255 -4.03312
1891 1 -7.11186 -6.62826 -4.72756
6703 1 -7.01666 -7.75732 -2.32974
1133 1 -3.24696 -7.77842 -5.92679
3114 1 -5.36739 -9.62369 -6.00962
4052 1 -4.20272 -8.09051 -2.74706
2131 1 1.29786 -9.27289 -5.3148
3189 1 0.954886 -9.40225 -2.73771
1280 1 -0.30558 -7.11226 -4.87282
1540 1 4.92626 -7.45719 -5.20698
3948 1 3.02352 -7.51554 -2.87855
6241 1 7.98795 -8.99172 -4.07343
2120 1 7.28471 -6.39851 -3.46398
7549 1 5.59582 -9.18722 -3.13192
5057 1 8.27441 -7.24523 -6.07655
7740 1 -16.91 -2.96241 -5.97546
6712 1 -14.6585 -5.17255 -3.0551
3078 1 -14.0626 -2.42613 -4.31737
3439 1 -17.2999 -4.03154 -3.44143
5890 1 -11.75 -3.8887 -5.56645
7897 1 -11.7748 -3.94481 -2.38637
584 1 -8.70985 -4.68192 -6.09045
509 1 -9.53402 -3.09992 -3.54188
1861 1 -6.66809 -3.85982 -4.15746
7188 2 -8.16301 -5.27133 -2.52851
1036 1 -4.46124 -5.37643 -4.84891
8071 1 -2.3724 -5.88079 -3.5251
5100 2 -2.02688 -5.60264 -6.06513
953 1 -0.108494 -4.38313 -5.53052
5076 1 -2.28267 -3.30561 -4.32913
1440 1 0.502111 -2.57757 -2.79751
7304 1 2.7708 -5.96515 -5.23163
6135 1 4.34869 -4.5591 -2.74695
7314 1 1.58878 -4.8759 -3.19086
7717 1 2.89951 -2.99744 -5.0151
5099 2 2.82589 -2.56706 -2.42997
4137 1 7.03458 -2.73693 -5.962
1596 1 5.22837 -4.8916 -5.45563
3594 2 6.75482 -4.16009 -3.58699
175 1 8.75261 -2.8561 -3.26493
7312 1 8.85951 -5.01905 -4.89547
4696 1 -16.4888 -1.76516 -3.36849
409 1 -15.9352 -0.450652 -5.95996
1221 1 -15.558 0.896834 -3.8116
529 1 -13.1137 0.507587 -5.28344
2457 1 -11.6083 -1.34564 -3.56941
3870 1 -6.51381 -1.01742 -5.59433
5471 1 -7.32239 -1.11089 -2.9811
3626 1 -9.15915 -0.0806647 -4.56179
3523 1 -4.86688 -2.02902 -2.73474
1780 1 -3.99968 -1.43023 -5.19066
2574 1 -0.995906 -1.41444 -6.08431
182 1 -2.18364 -1.26899 -2.62793
2296 1 -2.30753 0.72122 -5.3812
3434 1 0.0699379 -0.203148 -3.95389
7991 1 2.89474 -0.195224 -3.34398
107 1 4.78139 0.211962 -4.93329
1035 1 7.37419 -0.305339 -4.43377
6359 1 5.47756 -2.11944 -3.36213
2806 1 -14.5471 2.98553 -5.90141
4603 1 -15.0895 4.50977 -3.89022
5036 1 -12.0637 4.48825 -5.17326
8069 1 -11.2214 1.72253 -4.29535
7792 2 -13.453 2.60256 -3.86953
7907 1 -12.2648 4.02103 -2.54012
4029 1 -8.59675 2.55781 -3.424
3848 1 -8.76124 5.101 -4.54996
7094 1 -7.25614 2.73489 -6.04705
251 1 -6.10161 4.18337 -3.78741
5612 1 -4.40609 2.03507 -5.14663
3107 1 -2.81519 3.8832 -3.56271
6525 1 -6.08331 1.53944 -3.20419
3118 1 0.0105503 2.84383 -2.80733
5631 1 0.27654 3.62798 -5.74949
3538 1 2.48622 2.20365 -5.25159
3764 1 3.33215 4.3683 -3.15567
5504 1 4.80854 3.3577 -5.46028
4488 2 4.32467 2.03812 -3.60931
2978 1 6.6561 2.38776 -3.88688
6763 1 8.25683 4.2078 -4.45071
2541 1 -17.0713 8.4564 -5.32297
2394 2 -17.2144 8.6995 -2.85628
7448 1 -15.0711 5.90496 -6.04748
3592 2 -10.8499 5.96695 -3.38221
105 1 -11.4343 8.47991 -3.61676
7945 1 -13.43 6.59634 -3.06325
2874 1 -10.2503 7.02862 -5.55475
5997 2 -6.40232 5.42696 -5.96438
2683 1 -6.89837 6.82969 -3.75433
5161 1 -4.35564 6.088 -5.26944
6284 1 -4.0533 5.92041 -2.63223
6164 1 -3.32572 8.99096 -5.35798
6995 1 -4.69551 8.67975 -2.89795
3616 1 -0.157923 8.01776 -2.92263
1968 1 0.0536028 7.9041 -5.68847
758 1 -1.95527 6.30192 -4.67661
2049 1 0.624384 5.31695 -3.52433
7469 1 3.67977 6.76236 -3.00258
6668 1 3.05679 6.3894 -5.34809
6547 1 2.6101 8.94696 -3.99055
512 1 5.32369 7.98991 -5.4824
2117 1 6.28948 5.81009 -3.74071
304 1 6.64255 8.11369 -2.73251
4619 1 -15.9636 -14.3178 -0.517306
1050 1 -16.5635 -17.1872 0.0128865
2855 1 -10.8195 -15.4822 1.34923
610 1 -11.0151 -13.9874 -0.927404
1326 1 -13.5141 -15.6229 0.139597
6081 1 -8.24276 -15.6002 -1.27724
6403 1 -8.36186 -14.5236 1.19369
1943 1 -5.94689 -15.4858 0.393194
5166 1 -3.49441 -16.5442 1.01766
2208 1 -4.89213 -16.1383 -1.76017
2543 1 -2.94422 -14.4654 -1.45606
385 1 -3.82745 -13.6622 1.02231
6562 1 0.364325 -13.7967 -1.56181
8020 1 1.36964 -16.8469 -0.506684
5078 1 -1.04627 -15.7574 1.22516
3008 1 -1.70594 -16.8677 -1.2533
6352 1 4.63113 -17.3963 -1.31493
168 1 3.14041 -14.8666 -1.33813
3027 1 1.45018 -14.2211 1.09203
5043 1 4.46666 -13.7863 0.791008
6074 1 5.69211 -16.3134 1.36538
3219 1 8.2565 -15.8614 0.250917
6818 1 5.85744 -15.2592 -1.20195
7678 1 -15.905 -11.3302 -0.372539
7728 1 -13.9102 -10.5419 -2.28503
5303 1 -10.7306 -11.4034 -1.12153
5377 1 -13.5627 -12.6544 -0.953866
5400 2 -10.7778 -10.1526 1.03116
3456 1 -11.1071 -12.7104 1.3825
6550 1 -8.49085 -12.9278 -1.36995
3711 1 -6.5021 -11.5189 0.308308
5867 1 -5.41348 -13.2128 -1.31867
6584 1 -5.71984 -10.2819 -2.31324
2444 1 -3.70464 -11.1631 -0.979216
5948 1 -0.937164 -10.2511 -0.885887
2745 1 -0.953866 -13.103 0.505298
7698 1 1.86541 -11.834 -1.96892
5814 1 1.91342 -11.4603 0.613941
4524 1 4.21922 -10.739 -0.990133
2483 1 7.32706 -10.9758 -2.13541
7814 1 7.03304 -12.6653 -0.0799921
643 1 -17.1523 -8.49455 -1.31548
4111 1 -16.1932 -8.9011 1.42187
242 1 -14.4451 -7.75021 0.011104
3143 1 -12.6497 -6.61208 -2.15704
5809 1 -12.3114 -8.99069 -0.716408
3110 1 -9.99736 -7.99816 -1.90239
3368 1 -12.0664 -6.40711 0.974557
5420 1 -8.35453 -9.85053 -0.914428
3220 1 -9.35783 -7.66302 0.747681
4245 1 -6.30878 -8.47584 0.487048
6473 1 -3.15248 -8.58142 -0.134188
5906 1 -4.71093 -6.37191 0.599786
6596 2 -3.17289 -6.28716 -1.16852
7043 1 -1.3618 -7.73163 -2.03753
5811 1 -1.55496 -6.5005 0.578025
3005 1 0.650657 -6.61574 -0.771298
7689 1 1.566 -8.68353 0.450709
4226 1 4.14365 -8.01548 -0.333469
5459 1 2.50915 -6.13142 1.16603
1031 1 7.41573 -9.8396 0.454729
5019 1 7.21614 -7.95479 -1.22721
3988 1 -16.9358 -5.63731 -1.01464
7831 1 -14.3832 -5.03115 0.139062
1145 1 -16.4098 -3.88013 1.44458
6023 1 -15.6371 -3.28826 -1.32511
1075 1 -11.4088 -3.40435 0.508361
4611 1 -7.36609 -6.07711 -0.184078
4628 1 -9.6775 -5.35615 -0.778257
2506 1 -7.26152 -3.13894 -1.62286
2308 1 -8.83275 -3.14696 0.650155
3313 1 -6.14467 -3.4152 0.831855
7604 1 -5.66431 -5.49973 -2.10666
4702 1 -3.33012 -3.60201 -1.16122
5081 1 -2.60069 -3.9631 1.17351
7628 1 -1.02422 -4.5152 -1.70579
2477 1 1.6898 -3.77222 -0.466329
3009 1 3.97497 -4.80418 -0.32664
1072 1 6.53138 -5.20012 -1.20251
6383 1 7.04421 -2.6306 -1.21152
220 1 7.77892 -4.0477 1.32376
6297 2 5.57085 -3.2008 0.957816
2652 1 -15.159 -0.0312576 -1.03135
4847 1 -14.1951 -2.3194 0.687663
3090 1 -17.1989 -1.32763 0.286662
2851 1 -13.3843 -1.75097 -1.74732
1846 1 -12.6345 0.848953 -2.21432
2236 1 -11.7592 -0.447682 0.394285
1002 1 -9.97496 -1.50789 -1.34439
3223 1 -6.32647 0.0440333 -0.754127
6858 1 -8.97711 0.449399 0.432027
2867 1 -4.36462 -1.52139 0.123359
2377 1 -3.77826 0.619711 -2.26758
3687 1 -2.44328 0.591943 0.547949
1989 1 0.0757247 0.740346 -1.36759
6386 1 -1.03892 -2.12537 -0.209825
3296 2 0.203708 -0.162511 0.797284
3183 1 2.07795 -1.16539 -0.586811
4271 1 2.4645 0.980128 0.739089
4121 1 4.3189 -1.88486 -0.560395
841 1 5.40034 0.239248 -2.30363
5566 1 7.80788 -1.40691 1.2418
6457 1 6.03549 0.555691 0.43575
4198 2 8.63285 0.938945 0.589691
2231 1 8.55726 -0.473322 -1.42109
465 1 -17.1223 1.44864 0.308154
1918 1 -14.7437 2.67065 -1.69515
5780 1 -16.6667 4.31089 -1.06877
2675 1 -13.2195 1.72702 0.613872
6972 1 -10.4786 1.61509 -1.39267
2170 1 -11.45 3.76958 0.251669
1341 1 -13.6374 5.09682 -0.245685
6552 1 -7.58017 2.7021 -0.845047
5091 2 -9.16914 3.12807 0.716243
4225 1 -9.79737 4.37886 -1.44026
3902 1 -7.28558 5.00736 -1.7147
7003 1 -6.58694 4.54103 0.800882
5623 1 -4.99751 3.55585 -1.14241
3081 1 -2.89956 4.62254 0.522959
5509 1 -2.47837 2.49053 -1.22324
7625 1 -4.75424 1.89752 1.42698
1862 1 -1.04474 5.06181 -1.6653
978 1 1.39291 4.44892 -0.361136
4153 1 -0.136398 2.27706 0.894138
545 1 2.83638 2.1771 -1.75235
3378 1 3.66571 3.10188 1.10379
1808 1 8.1205 2.08491 -1.66005
2311 1 7.77532 3.31007 0.618369
6724 1 5.43865 2.90167 -1.46573
1298 1 7.25175 4.78154 -1.49385
1334 1 -16.9427 8.6256 0.205124
6067 1 -15.5661 6.96951 -1.85534
6431 1 -15.7963 6.31704 0.775261
4720 1 -13.6366 7.7735 0.756175
2515 1 -11.6243 6.49941 -1.10919
6778 1 -10.4787 8.60917 1.06156
6850 1 -7.16497 8.41023 -1.38633
1444 1 -9.08965 6.96006 -2.18042
7546 1 -8.8921 6.35663 0.39342
5209 1 -2.48295 7.60199 -1.50428
2816 1 -5.09298 6.42286 -0.319149
160 1 -2.73708 7.744 1.17122
1339 1 0.142109 8.71599 -0.179712
4719 1 -0.448579 6.10768 0.730797
4324 1 4.08019 5.31123 -0.427313
5244 1 2.3544 7.64188 1.32266
6753 1 1.78283 6.80942 -1.23005
1204 1 4.14563 8.44408 -1.01193
4797 2 6.07117 5.23587 0.752053
6414 1 5.47591 7.80728 1.24642
7763 1 7.46706 7.24864 -0.353317
381 1 -16.1044 -17.2648 2.71854
5718 1 -15.7252 -14.2891 3.96985
5329 1 -11.2081 -16.8096 3.22897
6379 1 -13.501 -15.637 2.68884
7434 1 -10.7346 -13.9806 3.58592
7010 1 -7.24187 -16.0309 3.55689
806 1 -8.98321 -17.3884 4.70781
1099 1 -4.53903 -15.9382 3.4859
1351 1 -2.03755 -17.0434 3.30801
5587 1 -2.19872 -14.4942 3.04653
4748 1 0.984651 -16.5485 2.35692
17 1 1.09713 -14.1979 4.32293
3765 1 3.29926 -15.3209 2.96687
3755 1 8.16547 -16.2149 2.82069
4186 2 6.85511 -14.246 1.56798
382 1 6.40101 -14.2619 3.80194
3766 1 6.72956 -16.4523 5.16407
3240 1 8.90192 -14.1964 4.94866
343 1 -16.8262 -11.49 4.7358
5284 1 -14.6282 -13.1352 1.60572
2843 1 -16.7553 -11.6309 2.12829
6385 1 -13.9968 -10.6015 3.99751
5464 1 -13.0108 -13.1234 4.1638
207 1 -13.2851 -10.8207 1.48988
5737 1 -11.1317 -10.9605 3.56924
2421 1 -8.67811 -9.87533 2.19651
7612 1 -8.59298 -12.483 2.99215
2797 1 -6.72616 -11.9437 5.07737
2785 1 -2.90314 -11.0733 1.45565
5582 1 -6.00547 -13.1854 2.68606
2143 1 -5.54139 -10.3639 2.32295
186 1 -3.57374 -12.3891 3.71457
6013 1 -3.13882 -10.049 4.93885
3359 1 -0.27245 -10.1678 1.61059
4689 1 0.421156 -12.3516 2.62415
210 1 -0.559995 -10.1388 4.75332
3665 1 2.94731 -12.496 2.85737
7951 1 4.66676 -10.0263 1.63788
1020 1 2.12901 -9.95815 3.06403
902 1 4.74718 -11.8559 4.79926
7826 1 8.90535 -13.0341 1.99772
2668 1 6.36014 -11.8737 2.46052
2596 1 7.94037 -11.4451 5.19491
3048 1 8.59842 -10.0356 3.16569
1884 1 -16.8125 -6.43655 1.84654
6807 1 -16.5848 -8.61106 4.25575
6499 1 -14.1895 -6.82714 3.00628
338 1 -12.3991 -8.69855 2.25898
3911 1 -10.8353 -6.48343 3.326
8050 1 -11.8731 -8.29081 4.9454
4474 1 -6.72218 -9.0454 4.93116
3513 1 -8.21706 -7.46657 3.50106
7934 1 -9.3966 -9.25271 4.98269
6787 1 -5.33993 -7.67347 2.89156
2583 1 -2.60058 -8.61297 2.53603
877 1 0.356747 -7.14206 2.5865
3147 1 1.54312 -6.94121 5.08204
1318 1 3.92998 -7.90464 2.76191
922 1 6.19388 -9.18143 4.06258
5705 1 7.34143 -7.37868 2.36518
1193 2 5.79146 -6.49567 4.16501
460 1 -17.3179 -2.83582 3.92571
1890 1 -14.9253 -4.49422 4.64341
7632 1 -13.0858 -4.44264 2.66459
7942 1 -10.4602 -3.80299 3.56303
7288 1 -7.89593 -4.86381 3.01451
3292 2 -9.64163 -5.22451 1.5274
2375 1 -6.25005 -2.97278 3.74984
1828 1 -4.56474 -4.96046 2.73396
2666 1 -2.82069 -2.88445 4.04598
3235 1 -0.0426792 -4.31559 1.87915
3369 1 -2.23544 -6.04198 3.22903
2839 1 -0.54034 -4.97751 5.07008
1282 1 1.52318 -3.7721 3.82464
5792 1 3.90848 -5.23775 3.96602
2413 1 3.42003 -3.28096 1.98171
5444 1 8.92096 -2.36516 3.32568
5919 1 7.97568 -5.12823 4.31416
7215 1 5.42907 -5.48737 1.93929
7235 1 6.20938 -2.90732 3.43039
2611 1 -15.5667 0.0867981 2.15383
2050 1 -14.6066 -2.30724 3.62723
6899 2 -12.425 -2.16796 2.44131
3497 1 -12.3319 -2.19488 4.86488
5734 1 -10.0948 -1.1863 2.73476
1167 1 -12.7884 0.123426 3.14194
7179 1 -6.80767 -0.785626 1.76069
5847 1 -8.40538 -2.2484 4.71877
4219 1 -8.06741 0.228727 4.35651
3976 1 -5.59653 0.971213 4.33698
3285 1 -3.62048 -0.366155 3.04029
3841 1 -1.5208 -1.2312 2.28145
674 1 -0.346181 -2.13744 4.80948
4152 1 0.115493 0.707513 3.3194
7563 1 1.47223 -1.59058 2.10883
6813 1 4.97633 -1.03381 2.12671
1286 1 3.39848 -2.11751 4.3852
1374 1 3.20785 0.451946 3.55092
3000 2 4.88876 1.35619 2.32998
3997 1 5.78245 -0.305517 4.47693
3099 1 7.3077 1.09413 2.683
2995 2 -17.0156 1.95269 2.41366
1022 1 -16.7132 3.8789 4.31737
4707 1 -14.7026 2.15014 3.57653
4237 1 -15.3771 3.59523 1.57322
5231 1 -13.9848 4.18317 4.85183
3232 1 -12.8829 3.75482 2.62651
417 1 -11.3812 4.254 4.83159
586 2 -12.1676 2.10262 4.47681
7058 1 -10.5847 1.79126 2.51523
4716 1 -7.53585 2.2985 2.33063
1460 1 -9.56932 4.59811 2.67102
330 1 -6.90858 3.54583 4.46975
2768 1 -4.10301 3.57779 3.17814
2536 1 1.32213 4.37142 2.2116
5052 1 -1.61597 2.59584 3.16558
5532 1 -1.6529 5.11939 3.0582
1976 1 3.35228 3.20742 3.67255
5763 1 8.32366 3.6718 4.02964
302 1 6.01941 3.69102 2.60667
2480 1 5.67338 2.31152 4.5816
2424 1 -16.8811 6.44847 3.2981
2857 1 -14.9045 8.41399 2.94303
3900 2 -17.2146 8.27152 4.64674
703 1 -12.9694 8.63548 4.88411
1304 1 -11.314 6.28559 1.46038
2388 2 -12.4848 8.54079 2.54741
7872 1 -10.3491 7.65483 4.03104
638 1 -12.9358 6.3108 3.84058
42 1 -6.31224 6.42026 4.89917
4695 1 -7.80693 6.68695 2.62866
2687 2 -8.1941 7.74262 4.84848
4290 1 -5.48579 8.11586 2.05179
5333 1 -4.60455 5.87805 2.47842
5363 1 -3.11783 8.43004 3.97015
324 1 0.837258 7.34839 3.17285
5967 1 3.83222 8.1884 3.86589
5829 1 3.90845 5.82996 2.18909
3644 1 2.33891 5.85161 4.82738
4109 1 5.10427 5.28753 4.60517
3033 1 6.71944 8.59021 3.27542
1582 1 7.11182 6.01329 2.92979
6495 1 -16.7598 -16.31 5.63646
5462 1 -14.8697 -15.0624 6.55133
5648 1 -12.8207 -15.8587 5.28459
1322 1 -12.8302 -15.789 8.23261
5055 1 -10.1911 -16.5866 6.72733
4104 1 -11.0144 -13.8063 6.52367
6372 1 -8.58376 -14.5628 5.23785
1961 1 -7.08686 -14.2944 7.95364
8066 1 -6.86228 -16.5645 6.4415
3972 1 -3.75797 -14.9474 8.53922
5949 1 -5.43878 -14.5351 5.2824