ITEM: TIMESTEP
0
ITEM: NUMBER OF ATOMS
1000
ITEM: BOX BOUNDS pp pp pp
0.0000000000000000e+00 2.8867500000000000e+01
0.0000000000000000e+00 2.8867500000000000e+01
-1.0000000000000000e+00 1.0000000000000000e+00
ITEM: ATOMS id type x y vx vy
279 1 0.695787 0.530229 0.0620301 -0.522591
747 2 1.36571 1.2879 -1.46566 0.0317962
343 1 1.85491 0.413791 0.489557 -0.895646
885 2 2.73594 0.648351 0.349913 1.27711
601 1 2.2292 1.35194 0.11965 0.217926
107 1 3.7083 0.424172 0.844307 0.37884
504 1 3.23306 1.38212 -0.314248 0.189731
777 2 4.07923 1.15666 0.165839 0.146281
906 2 5.56578 0.403979 -0.216261 0.628625
177 1 4.69546 0.0322817 0.517713 0.566388
564 1 4.91605 1.0185 -0.372951 -0.92072
526 1 6.48379 0.351587 1.38081 -0.176132
389 1 5.96964 1.20099 -0.437058 0.63186
278 1 7.28253 1.07733 -0.564286 -0.282205
983 2 7.34485 0.141633 0.116376 0.378763
264 1 8.14608 0.552009 -0.828687 0.490215
757 2 8.16388 1.40418 -0.153627 -0.935908
722 2 9.06568 0.301525 0.580176 0.02524
481 1 9.90443 0.501129 0.0520973 0.349482
511 1 9.03621 1.1389 -0.651009 0.527654
827 2 10.0784 1.31641 -0.966921 0.767376
14 1 10.8626 0.96729 -0.135987 -0.0368317
470 1 11.5116 0.0881637 -1.02636 0.111799
574 1 12.6159 0.154376 0.143921 -0.441264
513 1 11.9611 1.10516 -0.279198 -0.107325
561 1 13.0687 1.06309 -0.511286 -0.451344
106 1 14.0776 1.2648 -0.850822 -0.0300025
145 1 13.7709 0.175934 0.247567 1.077
800 2 14.6086 0.50357 0.318018 -0.309317
501 1 15.3964 0.629149 0.441666 -0.66859
697 2 14.9443 1.35885 -0.876452 -0.206045
821 2 16.2316 0.849327 -0.240615 -0.617247
309 1 16.6718 0.119355 -0.0713448 -0.527862
833 2 17.3343 0.719786 0.399536 1.32491
13 1 18.1684 0.431545 -0.60669 -0.103051
353 1 18.8325 1.16528 -0.0042871 -1.06222
74 1 19.2134 0.122132 0.495837 0.429668
486 1 19.86 1.19497 0.707446 0.223236
239 1 20.6972 0.576414 -0.529545 -0.434424
47 1 21.8097 0.848973 0.744288 -0.320156
803 2 23.2321 0.958658 0.198491 -0.0467775
443 1 24.1025 0.832047 -0.0569859 -0.613266
323 1 23.3456 0.0958083 -0.11122 0.240171
761 2 24.9213 0.725584 1.2125 -0.0807907
101 1 25.6421 1.0743 -0.531788 0.599349
915 2 26.0423 0.314591 0.978601 0.00469657
315 1 26.9187 0.244627 1.07487 -0.559307
154 1 26.7171 1.26746 -0.861926 0.35023
459 1 27.7701 1.02003 0.0928707 0.407052
261 1 28.5899 0.366844 -0.604091 0.282359
929 2 28.6352 1.22441 1.13966 -0.211398
819 2 27.7118 0.0222863 -0.0978147 0.639226
386 1 0.604479 1.58919 -0.988142 0.663337
214 1 0.634339 2.68427 1.03697 0.15867
644 1 1.62289 2.21125 -0.540094 0.379132
779 2 2.55599 2.12157 -0.705886 -0.0737126
623 1 3.33703 2.49086 -1.2578 0.306045
228 1 4.44589 2.00782 0.498662 0.000660978
699 2 5.35094 1.79997 0.843865 -0.193022
56 1 5.19178 2.76957 0.179408 0.809137
408 1 6.1166 2.27787 0.477742 0.411379
759 2 6.76388 1.73407 -0.384956 1.8382
724 2 6.89489 2.60425 -0.376218 0.142429
182 1 7.55373 1.99831 0.423328 0.534072
22 1 8.62405 2.29555 -0.669961 0.862246
312 1 9.62623 2.08691 0.624278 -0.0624671
80 1 10.6678 1.94495 0.0923007 0.710413
128 1 11.7294 2.11662 0.447926 0.584322
815 2 12.6077 1.86887 -0.374203 -0.831703
296 1 12.6155 2.73888 -1.64245 0.618783
16 1 13.4932 2.0589 0.359734 1.07908
687 2 14.1187 2.81046 0.0806804 0.970096
332 1 15.686 1.65135 0.249604 -1.02042
300 1 14.6288 2.17669 -1.17941 0.0599141
979 2 15.4944 2.63262 -0.398866 -1.12946
301 1 16.7772 1.50184 0.212714 -0.162396
191 1 16.3075 2.49321 0.856264 -0.230298
219 1 17.8302 1.4612 0.0767321 -0.799926
208 1 17.3681 2.44482 0.971208 0.334916
216 1 18.4136 2.31414 -1.07973 -0.00403504
43 1 19.4086 2.14073 0.263225 -0.566309
846 2 20.284 2.09243 -0.213814 -0.14373
405 1 21.0099 1.59582 0.209099 -0.0268441
341 1 21.0154 2.6459 -0.874571 0.0814738
33 1 22.609 1.45798 -0.70733 0.90577
584 1 21.88 2.2257 -0.254909 0.888727
751 2 22.8931 2.24593 -0.202967 0.869416
463 1 23.6074 1.77123 0.0046499 -0.627121
825 2 24.2893 2.30737 1.12256 -0.302101
350 1 23.6013 2.88199 0.74565 0.409293
630 1 24.7563 1.62745 0.519088 0.937546
196 1 25.0989 2.63724 0.422365 -0.661967
918 2 25.542 1.95552 0.029738 0.363496
224 1 26.3157 2.35621 1.06367 1.21921
193 1 27.4161 1.99614 -0.68961 1.05749
35 1 28.604 2.15936 -0.664718 -0.420116
933 2 0.512379 3.53796 0.779122 -0.451744
493 1 0.0510603 4.21932 -0.757658 0.46671
54 1 1.42818 3.40539 -0.037796 -0.228939
442 1 2.44428 2.97135 0.611973 -0.315178
951 2 1.94934 4.09075 -0.33063 0.199384
226 1 2.74544 4.01273 -0.436391 0.0970286
523 1 4.1638 3.18549 1.11352 -0.0466424
959 2 3.33712 3.35875 -0.265297 1.17069
540 1 3.73676 4.14619 0.0478005 -0.36983
720 2 4.96331 3.58612 0.500009 0.427107
257 1 5.75944 3.96028 -0.185392 0.519026
806 2 5.92982 3.10821 -1.08351 -0.171083
210 1 6.67931 3.42654 -0.231404 -0.242856
306 1 7.65299 2.99428 0.535984 0.453068
6 1 7.48488 4.07277 0.753103 0.630761
572 1 8.46316 3.55669 -0.239219 -0.560574
542 1 9.54541 3.10749 -0.684642 -0.423844
324 1 9.29774 4.13272 -0.164621 0.262542
910 2 10.1592 3.75513 0.468597 0.531155
355 1 10.623 3.02507 -0.00978524 -0.818219
181 1 11.0182 4.05724 0.186509 -0.883201
41 1 11.6259 3.24828 1.10453 -0.326783
495 1 12.5234 3.95153 0.285408 -1.15336
369 1 13.492 3.37493 -0.955209 0.744769
944 2 14.2037 3.87565 -1.39518 -0.892768
292 1 14.7999 3.26882 -0.604535 1.16723
225 1 15.8456 3.64312 0.24061 0.139666
791 2 15.1083 4.07838 0.364778 0.172494
206 1 16.9 3.34877 0.323989 -0.708033
832 2 17.4873 4.05691 -0.208672 0.666031
497 1 17.9617 3.24294 -0.245474 -0.0167573
809 2 18.4375 4.00448 -0.105049 -1.85471
547 1 20.0855 3.06555 -1.33088 0.583467
500 1 18.9555 3.24371 0.0759427 -0.106835
897 2 20.1131 3.93061 0.591614 -0.495682
563 1 19.3576 4.22142 -0.455899 -1.15675
192 1 20.9502 3.73492 -1.0404 -0.322253
664 2 21.6937 3.12269 0.21781 -0.462091
134 1 22.5836 2.97888 -0.91661 -0.349717
646 1 21.9749 3.93331 -0.907089 -0.585098
573 1 23.0567 3.92684 -0.917394 0.591385
398 1 24.051 3.93335 0.221223 -0.560212
843 2 24.4226 3.19591 0.304431 -1.10927
247 1 25.1175 3.73775 0.577523 0.0889689
857 2 25.8275 3.09018 -0.0173613 -0.420128
795 2 26.7272 3.14398 0.46707 -0.462056
140 1 26.2607 3.82212 0.836914 0.375332
380 1 27.282 4.15996 -0.526786 -0.369057
238 1 28.5594 3.22009 -0.678806 -1.2072
391 1 27.5198 3.05454 -0.561016 1.03612
756 2 28.1152 4.01009 0.55978 -0.618168
221 1 1.07212 4.46529 -0.127698 0.310138
891 2 0.519193 5.08929 -0.57248 -0.415962
982 2 1.43186 5.31894 0.390512 0.144512
227 1 2.18756 4.92482 -0.495742 -0.259113
774 2 3.1281 4.87433 -0.356322 -0.0967004
155 1 3.95021 5.14573 -0.381089 0.337598
923 2 4.75038 5.43219 0.278034 0.541567
23 1 4.76196 4.38221 0.422935 -0.482548
258 1 5.6424 5.66064 0.839282 -0.485276
663 2 5.61461 4.78099 -0.207466 -0.156454
117 1 6.55171 4.64797 1.00707 1.09544
837 2 6.6314 5.52595 -0.706884 0.612733
510 1 7.45357 5.19722 0.0742515 0.408684
430 1 8.33039 4.67179 -0.082569 0.0361598
520 1 9.23711 5.13235 1.41266 -0.946119
413 1 10.1914 4.69019 0.637606 0.0766377
164 1 10.9797 5.28225 -0.851722 0.67881
199 1 11.8171 4.66683 0.541053 -0.864013
104 1 12.8282 5.09072 0.0918381 0.760198
110 1 11.9898 5.65779 -0.427626 -0.444946
388 1 13.5573 4.4633 -0.35868 -0.733116
878 2 13.8282 5.26692 0.476092 -0.310553
29 1 15.6732 4.68411 1.29882 1.05793
195 1 14.6121 4.80942 -0.585264 0.302416
652 2 15.2598 5.46568 -0.0723832 -0.390599
508 1 16.704 4.39394 -0.406577 -0.0693882
231 1 16.3717 5.44333 -0.976905 -0.223947
784 2 17.1741 5.13145 -0.505007 -0.268698
48 1 17.9244 4.74405 0.186198 -0.908547
972 2 18.0316 5.61861 0.839886 0.650809
762 2 18.7778 4.984 -0.188269 0.568421
320 1 19.5416 5.29801 0.8549 0.0534664
348 1 20.4735 4.7109 1.14284 0.647615
874 2 21.3099 4.52246 -0.117902 0.288985
530 1 20.5707 5.71773 0.399076 -0.139695
531 1 21.5511 5.37173 0.614893 -0.725377
505 1 22.4436 4.90367 0.743799 0.0604587
778 2 23.0194 5.58072 0.130843 0.00282571
588 1 23.6266 4.93663 -0.237756 -1.11324
946 2 24.4152 5.42436 0.30931 0.0647204
836 2 25.6665 4.48108 0.334357 0.0330655
509 1 24.7925 4.69489 0.247247 1.04416
612 1 25.5863 5.39879 1.11343 0.18575
428 1 26.4823 4.83706 -0.16256 0.425891
554 1 27.248 5.48889 0.539068 0.00102305
740 2 26.3924 5.69627 -0.347793 0.611654
240 1 28.0824 4.90002 0.723679 -0.383284
149 1 28.8188 5.73193 1.08665 0.109256
950 2 0.783558 5.89629 -0.53429 0.344269
377 1 0.738576 6.82778 1.00722 -0.38606
668 2 2.2512 5.8163 1.31061 -1.22894
776 2 1.4979 6.37775 0.576355 0.871839
108 1 2.30989 6.6976 0.253589 1.25305
328 1 3.11123 5.83839 -0.0375302 0.870378
864 2 3.37543 6.63332 -0.393826 -0.615371
52 1 4.05594 6.16655 -0.0860055 -0.583846
949 2 4.30264 6.96557 0.162133 -1.15669
447 1 5.01745 6.48569 -0.0585454 -0.695403
863 2 5.71684 7.03226 0.780375 -0.325534
376 1 6.34604 6.45162 0.402785 0.369029
524 1 8.37348 5.79489 -0.360124 0.189714
427 1 7.44491 6.31512 -0.575289 -0.683166
643 1 7.93659 7.18529 -0.342112 -0.557923
89 1 10.0827 5.88558 0.808691 0.649507
786 2 9.20691 5.95885 -0.354498 0.54001
163 1 8.85534 6.73896 0.159559 -0.0551785
693 2 9.72229 6.68051 0.223791 0.217453
752 2 11.1509 6.12874 0.63631 1.53017
553 1 10.5571 6.84767 -0.779637 0.246268
304 1 11.8969 6.69788 0.503885 -0.114705
798 2 12.5949 6.21676 0.794603 0.275332
461 1 12.9526 7.04196 0.376964 0.856336
331 1 13.4011 6.05149 -0.656183 -0.813102
706 2 13.7722 6.8812 -0.0429348 -0.864229
345 1 14.4976 5.91677 -0.579919 -0.770378
40 1 14.6325 7.00237 0.510031 1.1153
488 1 15.5753 6.22105 0.228391 0.614752
907 2 15.478 7.0796 0.987018 0.0438443
139 1 17.283 6.04868 0.563524 -0.423418
653 2 16.4946 6.2872 -0.0415089 0.657219
167 1 16.3058 7.05335 0.598091 0.919282
657 2 17.1558 6.97089 -0.796702 -0.202703
956 2 18.0119 6.52976 -0.572859 -0.61388
364 1 18.8697 6.1301 -0.0512019 -0.526405
834 2 19.7346 6.18926 0.484772 -1.01631
382 1 19.335 7.04178 -0.00495844 -1.04043
578 1 20.3831 6.75019 -0.168701 -0.634234
603 1 21.3352 6.39289 -0.00182228 -0.399939
354 1 22.3127 6.00875 0.0195966 1.04296
115 1 22.1222 7.11706 -0.937769 -0.626573
404 1 23.0763 6.78369 -1.39812 -0.443367
205 1 23.7689 5.98475 1.30986 0.406562
714 2 24.1528 6.77172 -0.202059 0.870017
284 1 24.7634 6.19969 -0.225082 0.807987
302 1 25.774 6.55209 0.41764 0.599511
51 1 26.8649 6.46504 0.229137 -0.451619
865 2 28.7882 6.61116 0.812033 -0.287228
190 1 27.9159 6.29581 0.590224 0.268705
1 1 1.20384 8.17575 -0.0862162 -0.597566
829 2 0.580028 7.65117 0.333498 0.345054
858 2 1.47577 7.29036 -1.17467 1.06191
688 2 2.84497 7.39842 -0.0336843 0.0395169
596 1 2.18168 7.89149 -0.323879 0.903724
178 1 3.71418 7.56682 -0.416505 0.182019
685 2 2.99938 8.30968 0.2594 -0.582771
704 2 4.34394 8.11924 -0.463679 -0.37933
26 1 4.91739 7.53314 0.280935 0.307011
423 1 5.09787 8.55423 -0.358555 0.655893
590 1 6.81419 7.33121 0.686088 0.752198
469 1 5.909 7.88969 -0.662017 -0.136955
157 1 6.76827 8.48429 -0.758775 0.427786
876 2 7.40016 7.92556 0.630138 0.0959584
96 1 8.23701 8.27748 0.263627 1.02096
866 2 8.68469 7.55368 -0.290613 1.1022
456 1 9.60093 7.60309 0.134261 -1.00214
696 2 9.0853 8.31918 -0.487771 0.301779
711 2 9.88911 8.53769 0.747241 -0.526868
916 2 11.2801 7.23896 -0.305662 0.113762
998 2 10.4942 7.65196 0.543456 -0.0264477
945 2 11.4294 8.10868 0.676273 1.26419
991 2 12.2378 7.53161 0.26735 -0.0715023
492 1 12.2685 8.40096 0.61013 0.621703
860 2 13.019 7.90788 -0.191626 0.621526
144 1 13.9394 7.76526 0.177343 -0.627451
908 2 14.1008 8.59469 -0.303137 0.457666
894 2 14.8074 7.87406 0.568362 -0.304699
541 1 15.6488 7.99409 0.38277 1.16562
656 2 16.4922 7.8956 -0.49829 -0.224329
326 1 18.3696 7.29692 0.891414 0.600368
771 2 17.6555 8.53948 0.229178 -1.1316
474 1 17.4196 7.7524 -0.806744 -0.0946098
476 1 18.4249 8.31831 -0.312991 0.451302
1000 2 19.1409 7.82245 0.139674 0.228761
91 1 19.9727 8.43462 -0.310833 0.190163
671 2 20.0253 7.55939 -0.670094 -0.413223
672 2 21.1553 7.23907 -0.673053 1.10921
962 2 20.8457 8.06983 0.155329 -0.57226
94 1 21.5259 8.63697 -0.356415 -1.29146
188 1 22.8702 7.89781 -1.12863 0.776151
730 2 21.9664 7.92001 0.408333 -1.35266
537 1 23.7969 7.49741 0.156963 1.31004
691 2 23.6113 8.39624 0.194388 0.930667
939 2 24.407 8.0549 0.782962 -0.334744
638 1 24.8086 7.28373 -0.829105 0.265961
666 2 25.6298 7.51463 0.00937476 -0.345386
319 1 25.261 8.31812 0.268251 0.824466
82 1 26.4615 7.49632 -0.0989662 -0.214694
399 1 26.2423 8.50739 0.160522 0.110541
782 2 27.0858 8.0573 -1.20296 -0.0676867
996 2 28.8443 8.32735 -0.62765 -0.0184037
515 1 28.5691 7.44709 -0.240865 -1.09222
334 1 27.5642 7.31126 -0.845186 -0.595891
557 1 27.9916 8.29913 0.735253 0.159213
727 2 0.767103 8.88788 0.0752756 -0.602088
888 2 0.684717 9.83221 -0.735065 0.955089
841 2 1.96777 8.70175 0.739738 -0.429135
570 1 1.4621 9.40473 0.351583 -0.524476
168 1 2.70299 9.12218 -0.40306 0.0628755
856 2 1.98526 10.0811 -0.435861 -0.489339
305 1 3.7305 8.68756 0.489247 -0.436696
871 2 3.4865 9.51535 0.581184 -0.750668
339 1 4.43102 9.42992 -0.169873 0.751891
457 1 5.48733 9.58118 0.304306 0.395184
869 2 5.96949 8.82145 0.321375 1.07907
478 1 6.54931 9.55905 0.779623 -0.470394
978 2 7.54251 8.77283 -0.853552 -0.804979
527 1 7.58557 9.5999 0.828849 -0.31635
805 2 8.4585 9.10614 -0.160417 0.553137
349 1 8.59145 9.96574 -0.0462351 -0.467345
151 1 9.3234 9.18816 -0.595001 -0.181291
970 2 9.4592 10.0212 0.171761 0.0537911
336 1 10.7307 8.66294 -0.293744 0.181766
851 2 10.1759 9.42335 -0.544019 -0.773459
378 1 10.9778 9.72667 0.39997 -0.90243
673 2 11.6897 9.0226 0.793063 -0.608663
340 1 12.4764 9.4702 0.257481 0.139529
842 2 11.7999 9.97478 -0.204583 1.0948
222 1 13.2923 8.71295 -0.27927 0.192019
767 2 13.2831 9.5101 -0.608271 0.842076
303 1 14.1769 9.45989 0.781551 0.484407
50 1 14.9147 8.7897 -0.19081 -0.173283
883 2 14.9989 9.7995 0.712709 0.331726
560 1 15.8749 9.11722 0.815208 -1.54984
384 1 16.8212 8.68086 1.20003 0.753845
133 1 16.6807 9.77694 1.30165 0.898029
532 1 17.6489 9.44523 1.15701 0.31204
824 2 18.4077 9.20547 -0.128474 0.888616
948 2 18.1884 10.079 -0.63271 -0.639344
974 2 19.1438 8.74701 -0.234771 -1.28815
790 2 19.8757 9.28143 -0.987316 0.211963
83 1 19.0944 9.62262 0.439973 1.11492
742 2 20.7194 8.95302 -0.124411 0.279676
814 2 21.4996 9.60328 0.311452 0.349198
421 1 20.6343 9.82402 0.664621 -0.262961
831 2 22.4421 8.6608 0.835955 -0.412054
820 2 22.4518 9.5757 0.14666 -0.535028
270 1 23.1409 9.08494 0.088161 -0.831257
659 2 23.7603 9.66873 -1.7003 -0.293429
600 1 24.2619 8.95169 0.845476 -0.259936
736 2 24.7199 9.74077 1.0457 0.487957
482 1 25.484 9.33753 0.442105 -0.205023
942 2 26.3547 9.38786 0.823174 -0.00478117
595 1 27.174 8.99577 -0.404147 -0.528153
875 2 27.14 9.85526 -0.263303 -0.122587
317 1 28.8252 9.2419 0.261375 0.119831
859 2 27.9701 9.11936 -0.3588 -0.214508
410 1 27.9976 9.93363 0.406443 -0.310047
441 1 0.147665 10.5043 0.193991 0.664646
625 1 1.206 10.4959 0.612722 -0.250393
467 1 1.00739 11.5138 -1.06742 -0.0962742
881 2 0.0969867 11.3901 0.735939 0.710855
200 1 2.84961 10.1378 0.264608 -0.355592
593 1 2.14116 11.0112 -0.539848 -0.880894
713 2 3.04228 10.9686 0.324317 0.495457
409 1 3.89843 10.3223 -0.575292 0.257633
477 1 3.77866 11.4243 -0.510278 0.29493
971 2 4.89066 10.1493 -0.683383 -0.571385
85 1 4.83233 10.9986 -0.937343 -1.06007
529 1 5.83351 10.6558 0.324648 0.691444
267 1 6.88803 10.6035 0.28634 -0.235867
877 2 7.42151 11.2886 -0.728314 -0.651606
702 2 7.75983 10.4536 0.110941 0.371828
619 1 8.2467 11.1219 0.57063 -0.116213
362 1 9.22298 10.8593 -1.32112 -0.967857
921 2 9.94416 11.1891 -0.309191 -0.0521051
402 1 10.2139 10.4034 0.186535 -0.416743
765 2 11.0678 10.6124 0.043754 -1.65395
253 1 10.8134 11.4743 -0.645817 0.182169
538 1 11.8274 11.0047 0.464961 -0.727154
708 2 12.5912 10.4406 0.691644 -0.112557
297 1 12.934 11.3058 0.960199 -0.582261
60 1 13.4469 10.3614 0.996135 -0.172017
992 2 13.8433 11.1137 -0.0265675 -0.0883387
393 1 15.719 10.1853 0.113137 -0.372049
249 1 14.5135 10.4176 0.0819434 0.413081
785 2 15.1945 10.8599 -0.452471 -0.491933
437 1 15.8658 11.3291 -0.708789 -0.0858336
11 1 14.6706 11.5103 0.329444 0.0729222
684 2 16.4298 10.6165 -1.15428 -1.08974
546 1 16.8716 11.3847 -0.23335 -0.0440993
431 1 17.3822 10.4892 -0.483099 -1.03177
624 1 18.3619 10.9542 -0.0695688 0.244468
855 2 17.6718 11.5315 0.69567 0.0319223
919 2 19.8677 10.1283 0.837503 0.291749
243 1 19.3613 10.7725 -0.617045 -1.15173
823 2 19.0388 11.5053 0.335598 0.855821
739 2 20.2713 10.8936 0.831164 0.379369
849 2 21.1264 10.5267 0.732098 0.256354
466 1 20.8916 11.4868 -0.272423 0.63933
760 2 21.7057 11.2763 -0.538676 0.0684131
76 1 23.0172 10.1988 -0.562185 -0.224422
662 2 22.0958 10.419 0.00722396 -0.473661
567 1 22.6286 11.1796 -0.303156 0.101129
890 2 23.425 10.9029 0.804641 0.506552
599 1 24.036 11.4459 0.685071 -0.168328
212 1 24.1741 10.4119 0.202794 -0.184324
45 1 25.2618 10.3661 -0.254687 -0.318585
717 2 24.8134 11.1222 0.0338579 -0.243839
845 2 25.8516 11.0119 0.2035 0.533509
120 1 26.2689 10.2194 -0.321309 0.83944
506 1 26.5311 11.5221 -0.66098 -0.32578
491 1 27.2104 10.7135 0.265492 0.655391
835 2 28.1594 10.808 0.992494 -0.339722
130 1 0.254051 12.2353 1.04737 -0.307141
654 2 1.11767 12.4112 -0.652361 -0.679372
472 1 1.89949 12.0301 -0.98617 0.402553
418 1 2.70765 12.9165 0.71202 0.000639009
484 1 2.91009 11.8868 0.404378 0.886692
220 1 3.7624 12.4629 -0.165061 -0.536336
146 1 4.64031 12.0836 0.344564 0.516442
361 1 5.32491 12.8095 -0.301491 0.97424
737 2 4.45158 12.9138 -0.866789 -0.17958
394 1 5.57981 11.7187 0.750712 0.399199
327 1 6.5929 11.6186 -0.0539107 -0.563807
975 2 6.14988 12.4038 0.567115 -0.95378
534 1 6.98665 12.5894 0.0248391 -0.667216
5 1 7.86642 12.0752 1.02576 0.220939
758 2 8.52265 12.6319 -0.472441 -1.03935
632 1 8.89732 11.8671 0.211999 0.681609
462 1 9.90351 12.0252 0.495968 -0.335004
387 1 9.33301 12.8721 -0.26876 0.464368
611 1 10.3965 12.8718 0.0089026 -1.04483
985 2 10.9976 12.3206 0.588415 0.272431
439 1 11.7299 12.0088 1.32099 0.0648362
559 1 12.7889 12.2824 -0.0534371 1.44188
900 2 12.0607 12.8192 -0.219763 0.596869
383 1 13.7742 11.9699 -1.37222 0.294584
169 1 13.7846 12.9897 0.402942 -0.141505
838 2 14.5453 12.3971 -0.399943 -0.126556
318 1 15.3583 12.3433 0.102862 -0.0489205
189 1 16.321 12.2125 -0.0542932 -0.690946
580 1 17.4094 12.3496 -0.333264 -1.11598
123 1 18.3818 12.1038 0.405784 -1.00194
615 1 19.8942 11.7694 -0.222863 -0.439035
994 2 19.2109 12.4572 -0.299695 0.756766
15 1 19.9188 12.9276 -0.168232 0.113356
813 2 20.4888 12.33 0.667548 0.64898
365 1 21.5691 12.2342 0.633878 1.55741
754 2 22.3207 11.9421 -0.366498 0.374869
172 1 22.7258 12.6613 -0.325143 0.821617
682 2 23.3117 11.8349 -0.747401 0.155711
610 1 23.8929 12.543 0.823387 -0.00147625
73 1 25.3882 11.7227 -1.63457 -0.659318
799 2 24.6419 12.1854 0.832285 0.0254578
551 1 25.3536 12.7317 -0.652722 0.626466
679 2 27.3499 11.5828 0.158996 -0.193094
995 2 26.0678 12.2889 -0.31961 -0.66832
587 1 27.2163 12.3865 -0.818535 -1.63598
68 1 28.1362 11.7553 -1.56383 0.506442
152 1 0.621854 13.3552 0.342855 0.0985447
674 2 0.638845 14.2113 0.0617624 0.899289
162 1 1.72741 13.0484 -0.0911799 0.142286
234 1 1.52012 14.0331 1.01735 0.197162
651 2 2.3618 13.6903 -0.316879 1.09359
698 2 3.53733 13.2769 -0.100535 -0.0807096
396 1 3.17329 14.0877 0.021205 -0.0368825
119 1 4.2909 13.7343 -0.202286 0.755051
480 1 5.33193 13.8775 -0.105677 -0.200925
84 1 6.21559 13.2769 1.55337 0.183737
818 2 6.23169 14.1158 -0.509724 0.110303
828 2 7.07032 13.5138 0.290289 0.482769
438 1 7.01926 14.4239 -0.33487 -0.130887
30 1 7.87323 13.2129 0.120481 0.303168
419 1 7.9917 14.1608 0.763046 0.198797
676 2 8.77625 13.5989 -0.167584 0.423685
607 1 9.6504 13.8204 1.0781 0.621561
880 2 10.5053 13.6917 0.423904 0.364873
114 1 11.3711 13.3143 -0.365299 -1.28652
989 2 11.2824 14.1856 -0.564922 0.747309
731 2 12.1667 13.9026 -0.0808747 0.857186
293 1 12.7895 13.3639 0.251119 -0.828341
390 1 12.9385 14.4197 -0.482202 0.200169
744 2 13.5571 13.7994 0.3586 -0.500813
18 1 14.3819 14.2108 0.774474 0.425468
371 1 14.875 13.2363 0.0853156 -1.04209
807 2 15.2626 13.9563 0.331914 -0.0953359
725 2 16.7741 13.0215 -0.531975 -0.148529
637 1 15.9238 13.2179 -0.653027 0.347266
381 1 16.1052 14.276 -1.3855 -0.17266
934 2 16.8703 13.9514 -0.0852379 -0.239794
211 1 18.617 13.0867 0.214269 0.0998055
316 1 17.5672 13.4037 -0.472469 -0.00597307
450 1 18.7216 14.1709 -0.281237 0.869868
887 2 17.8827 14.3402 0.185454 -1.65776
852 2 19.3488 13.6094 0.376593 -1.14111
198 1 20.1494 13.9535 0.0254732 0.862563
597 1 20.9409 13.1297 0.309456 0.0754818
873 2 20.95 14.3926 -0.460448 -0.609555
792 2 21.9273 13.0135 -0.0562743 0.407031
487 1 21.7032 13.8974 0.870377 -0.0767678
395 1 22.8358 13.9509 0.461684 -0.86155
952 2 23.2951 13.2178 -0.87957 0.184691
78 1 23.972 13.7998 -0.451281 0.342854
840 2 24.5682 13.1457 -1.13111 0.432682
275 1 24.9296 14.0243 0.88974 -0.248669
909 2 25.6959 13.5743 -0.0674015 0.693591
291 1 26.3977 13.0788 -0.466804 -0.0588687
896 2 27.1171 13.5954 0.630411 0.114872
57 1 26.5192 14.1657 -0.184671 -0.770896
690 2 28.6866 13.1085 -0.170311 -0.592735
633 1 28.5661 14.0407 -0.129435 -0.440415
518 1 27.8681 13.2091 -0.0624203 0.67296
268 1 27.5042 14.3776 -0.654957 -0.455368
628 1 0.244597 14.9315 0.334211 0.479877
705 2 0.69198 15.6571 -0.207851 -0.676572
585 1 1.40208 15.1412 -0.131579 0.288671
31 1 2.33911 14.7456 0.70926 -0.658145
49 1 2.6269 15.7111 -1.23279 0.785482
311 1 3.97022 14.7093 0.0537883 0.782547
853 2 3.24738 15.101 -2.14937 0.374925
507 1 3.78267 15.7792 -1.18063 -0.491828
789 2 4.75653 14.4951 -0.581831 0.152256
158 1 4.73623 15.3058 -0.347941 0.0401474
372 1 5.69298 14.8404 -0.133526 0.039819
591 1 6.59419 15.4128 -0.0188045 -0.283164
558 1 7.74455 15.1953 -0.259636 -0.892573
955 2 8.56941 15.3704 -0.84371 -0.534939
248 1 8.89181 14.5994 0.0724267 -0.0632377
893 2 9.69019 14.9286 -0.6544 0.626847
183 1 9.38014 15.819 -0.246975 -0.39308
65 1 10.4767 14.5191 0.0760631 -0.0094916
539 1 10.3669 15.5402 -0.354992 0.391494
412 1 11.3424 15.055 -0.451538 -0.519801
766 2 12.1601 14.8076 -1.16782 0.130423
90 1 12.1429 15.6848 -0.0394928 -0.76788
816 2 12.9342 15.2853 -1.13657 0.592472
920 2 13.6996 14.7392 0.0529169 -0.241549
241 1 13.7383 15.6064 -0.78717 -0.0400427
446 1 15.3539 14.8842 -0.245775 -0.36646
917 2 14.475 15.0564 -0.14029 -0.397117
658 2 15.6798 15.7697 -0.0104741 0.807597
77 1 14.841 15.8312 -0.904948 -0.36899
122 1 17.1056 14.7561 0.399449 0.666313
124 1 16.5259 15.8736 0.150697 -0.218166
726 2 16.3393 15.1063 0.188405 -1.44091
958 2 17.2822 15.5631 -0.585619 0.00858049
72 1 18.0761 15.2679 -0.438618 -0.658475
854 2 19.5124 14.5428 -1.0243 0.818567
37 1 19.0425 15.2052 -0.739196 -0.0955537
606 1 20.2104 15.1526 -0.794418 0.692619
867 2 20.8121 15.698 0.781873 0.116258
373 1 21.4056 15.0958 0.482803 0.860193
940 2 22.1945 14.6727 -0.537575 -0.12902
954 2 22.053 15.5927 -0.387987 -0.343147
28 1 22.8649 15.2206 0.637381 -0.993441
732 2 23.4459 14.545 0.772661 -0.567366
522 1 23.9244 15.3215 0.725212 -0.608891
981 2 24.3348 14.564 0.592483 -0.276054
701 2 25.6136 14.4844 0.440851 1.71581
460 1 24.9779 15.1276 -0.338574 0.95393
111 1 26.0493 15.2057 1.00318 2.2249
810 2 26.843 15.0536 -0.313396 -0.0714844
448 1 28.648 15.8479 0.446334 0.250524
879 2 28.2423 14.7953 0.443493 0.161371
568 1 27.6439 15.3966 -0.776709 0.00951577
635 1 0.640712 16.5608 -0.077878 0.405719
129 1 1.60234 16.1226 -0.0804427 -0.436891
273 1 1.52551 17.1745 0.370889 -1.0462
213 1 2.39575 16.7398 -0.54477 -0.0974289
781 2 3.14563 16.3409 0.508139 0.351085
260 1 3.80329 16.8929 0.202948 -0.29478
165 1 4.68861 16.4023 -0.148849 -0.950689
294 1 5.65018 17.0928 -0.481923 -0.0296248
645 1 5.65861 15.8858 -0.267187 0.0405862
351 1 6.48954 16.4406 1.18314 0.07744
741 2 7.28002 15.975 0.248013 0.566201
159 1 7.47365 16.8421 0.775124 0.361958
379 1 8.35209 16.1683 0.670381 -0.276022
184 1 8.534 17.2003 -0.395056 0.661431
850 2 9.27127 16.7053 1.08763 0.489253
464 1 10.1456 16.6009 0.382832 1.64373
186 1 11.2321 16.1347 -0.430864 0.999988
170 1 11.0728 17.1529 0.153998 -1.01899
454 1 12.0543 16.7791 0.216886 -0.218075
436 1 12.9968 16.3945 -0.229139 0.537055
977 2 14.147 16.3381 0.56816 -1.1969
433 1 13.7984 17.1049 -0.843031 0.490631
179 1 14.8005 16.9038 -0.29444 0.884624
38 1 15.7981 16.6368 0.446367 -0.0103061
738 2 16.7393 16.7096 0.914596 -0.455964
70 1 17.5148 16.3807 0.1157 0.049943
746 2 17.9423 17.1132 -0.866628 0.389087
694 2 18.2996 16.0867 0.0150769 -0.187818
631 1 18.6907 16.7844 -0.174053 0.333866
862 2 19.2687 16.0492 -0.906517 -0.370572
148 1 19.6612 17.1058 -0.0394662 0.22732
490 1 20.0894 16.1897 0.785599 -0.934536
494 1 21.4384 16.2434 -0.0758302 -0.356256
329 1 20.6486 17.0422 1.0027 0.40145
571 1 22.5626 16.2918 0.587444 -0.250196
150 1 21.7048 17.3158 0.343351 1.51843
969 2 23.3342 15.934 0.55196 1.04792
420 1 23.4933 16.723 -0.152992 0.334556
548 1 24.3421 17.2874 0.718884 0.48033
649 1 24.4133 16.2297 -0.16749 -0.0492484
648 1 25.4645 16.0711 0.185121 -0.479602
905 2 25.1478 16.8612 -0.366652 0.000332935
175 1 26.8159 16.0175 -0.453124 -0.750542
207 1 26.8997 17.1669 0.181305 0.480629
984 2 26.1083 16.669 0.195553 -0.457302
283 1 28.595 16.9301 -0.395618 -0.0714721
514 1 27.7248 16.4209 -0.656395 0.110106
964 2 27.7551 17.2549 0.687703 0.0117527
126 1 0.518697 17.7276 -0.256748 -0.29371
86 1 0.159989 18.6945 -1.05035 0.319474
936 2 1.38808 17.9959 -0.0432046 -0.430524
63 1 2.32713 17.9348 -0.117337 0.0626846
967 2 2.98766 17.3212 -0.380301 -0.75692
886 2 3.07923 18.4635 -0.230301 0.620969
187 1 3.63354 17.9102 -0.90105 0.194696
385 1 4.69852 17.4738 1.59286 0.422979
295 1 5.45082 18.1341 -0.987267 1.40154
912 2 4.50962 18.2571 0.291269 0.544002
976 2 6.21776 18.3241 -1.70776 0.102702
3 1 6.64846 17.5342 0.712861 0.213187
322 1 7.00674 18.6893 0.310907 -1.24458
112 1 7.79694 17.9077 0.145697 -0.449387
556 1 8.85842 18.3676 -1.0887 0.329618
92 1 9.59623 17.6009 0.210443 -1.3494
434 1 10.5768 18.0616 -0.425899 1.13436
735 2 11.2617 18.5649 0.052332 0.74275
440 1 11.8786 17.8287 -0.184318 0.00901263
453 1 12.849 17.4589 1.14145 -0.511504
367 1 12.9056 18.5052 -0.754347 -1.14266
675 2 13.6801 18.0173 -0.0531552 0.284556
346 1 14.51 17.9476 -0.123966 0.834641
444 1 15.5035 17.6327 0.337555 -0.228744
655 2 15.6763 18.5254 -0.262758 -0.851137
299 1 17.1199 17.4662 0.396964 1.20879
999 2 16.3031 17.4487 0.486646 -0.362347
321 1 16.4986 18.2896 1.09235 0.00144292
750 2 17.2964 18.4153 0.119871 -0.193395
483 1 18.1576 17.8837 0.0580745 0.694524
931 2 18.9549 17.6261 0.495734 0.0202265
2 1 20.0272 18.1687 -0.195392 0.225536
102 1 19.0605 18.4739 -0.301773 -0.518135
141 1 21.0049 18.0468 0.0960727 0.104554
171 1 22.7134 17.4373 0.000893732 -1.09513
406 1 22.1346 18.2902 0.222095 0.123162
716 2 23.5274 17.6218 0.824018 -0.182325
594 1 23.1645 18.4542 -0.728399 -0.673017
986 2 24.2775 18.1837 -0.853073 0.948094
499 1 25.8064 17.4414 0.248295 -0.447384
269 1 25.0316 18.633 0.728551 0.280883
695 2 25.0557 17.7893 0.114569 0.838156
794 2 25.8541 18.312 0.312134 0.549089
872 2 26.5966 17.9179 -0.819958 0.881019
403 1 27.4278 18.2134 0.106779 -0.387511
215 1 28.3567 17.9071 -0.0167803 -0.491552
770 2 28.104 18.7537 0.0214326 -0.182038
132 1 1.13388 18.8081 0.927875 -0.255181
67 1 0.609198 19.6776 0.0153636 -0.251935
700 2 1.9785 18.8036 0.0123651 0.596515
209 1 1.71704 19.6989 -0.481977 -0.586531
87 1 2.70563 19.2249 -1.10401 -0.0953768
749 2 2.55714 20.1162 -0.0441176 -0.323204
46 1 3.83988 18.9485 0.974781 0.352184
555 1 3.39536 20.0001 -0.0860688 0.497113
817 2 4.38344 19.6929 -0.786674 -0.771407
136 1 5.00131 19.0478 0.470826 0.296898
201 1 5.21942 20.0821 0.134755 -1.31287
244 1 6.05201 19.1875 -0.658238 0.397668
7 1 6.94736 19.7022 0.0568644 0.560828
904 2 6.10329 20.0406 -0.046463 -0.3411
21 1 8.02838 19.0036 0.573728 0.61875
626 1 7.98737 20.0558 -0.522626 -0.835729
121 1 8.97182 19.4679 -1.00996 -0.475994
400 1 9.89912 18.8429 0.525738 0.353132
173 1 10.026 19.921 0.139194 -0.00444828
407 1 10.8373 19.2703 -0.408277 -0.511472
796 2 11.5112 19.747 -0.793691 -0.409415
142 1 12.002 19.0883 -0.444417 -0.636224
743 2 12.3445 19.9181 0.135996 -0.922107
246 1 13.968 18.9102 0.718798 -0.267534
32 1 13.0719 19.4836 -0.21478 0.205865
665 2 13.7455 20.1481 0.36094 -0.157234
229 1 14.4945 19.8797 -0.438037 -0.705604
185 1 15.0494 19.078 -0.918942 1.29382
922 2 15.3574 19.8631 0.929894 0.130705
4 1 16.0984 19.3204 0.558627 0.809639
426 1 17.158 19.3342 0.336645 -0.0808296
266 1 18.1493 18.9378 -1.15554 0.47227
930 2 17.99 19.844 -0.339064 1.74126
61 1 18.8617 19.6931 0.628538 -1.28219
535 1 19.8181 19.2653 -0.440153 -0.413012
689 2 19.6245 20.1251 -0.542891 0.577953
801 2 20.5416 18.8525 0.127192 0.257885
581 1 20.7781 19.8303 0.315565 0.00427093
233 1 21.4272 19.0212 0.014107 -0.142429
298 1 22.4688 19.265 0.655993 0.210998
745 2 23.3128 19.4151 -0.142963 -0.158462
174 1 24.0517 19.039 -0.08668 0.0451378
479 1 23.9582 20.0464 0.744641 0.269524
452 1 24.9169 19.637 -0.242558 0.176965
902 2 25.6726 19.2056 0.332439 0.821584
517 1 25.8669 20.0949 -1.13461 -1.39174
64 1 26.5298 18.7869 -0.0250533 -0.139821
990 2 26.5734 19.6855 -0.0598014 1.16441
9 1 27.3666 19.3819 -0.342112 0.0358249
458 1 28.4244 19.6068 0.272861 -0.524717
953 2 0.974344 20.4432 -0.195291 -0.585759
577 1 0.879094 21.3659 0.328491 -0.521917
259 1 0.0829009 20.6794 0.391018 -0.21391
203 1 1.86132 20.7442 0.287676 -0.989878
569 1 2.86932 20.9139 0.188047 0.0030124
271 1 4.18759 20.6575 0.463191 0.707366
780 2 3.56505 21.4029 -0.000353926 -1.77848