ITEM: TIMESTEP
5451512
ITEM: NUMBER OF ATOMS
800
ITEM: BOX BOUNDS pp pp pp
0.0000000000000000e+00 3.0499714066520937e+01
0.0000000000000000e+00 3.0499714066520937e+01
-3.8124642583151169e-01 3.8124642583151169e-01
ITEM: ATOMS id type x y 
263 1 0.391321 0.991834 
78 2 1.18402 0.194579 
751 1 1.88388 1.08717 
436 2 2.46728 0.131859 
774 2 3.67005 0.525429 
159 1 2.84425 1.26684 
401 1 4.74779 0.733914 
526 2 5.76949 0.309814 
23 1 6.94382 0.452938 
407 1 6.41679 1.23955 
186 2 1.0937 1.83929 
451 1 2.1822 2.07129 
727 1 3.12358 2.18624 
712 2 4.103 1.69932 
610 2 5.39016 1.63636 
94 2 6.44105 2.34955 
238 2 7.5186 1.46502 
64 2 0.354419 2.92052 
721 1 1.06835 3.73422 
257 1 1.57166 2.85915 
665 1 2.01817 3.7203 
287 1 2.65425 3.01532 
717 1 3.4344 3.62909 
525 1 3.85804 2.79272 
567 1 4.82054 2.58227 
5 1 4.50591 3.52372 
254 2 5.64185 3.31468 
387 1 7.49181 2.56958 
576 2 6.96955 3.59729 
570 2 0.152131 4.36017 
26 2 1.48986 4.7631 
212 2 2.76524 4.49435 
452 2 4.10036 4.55774 
793 1 5.1542 4.31331 
247 1 6.13601 4.32598 
746 2 6.96017 5.0689 
439 1 0.551373 5.42411 
294 2 1.45405 6.04254 
295 1 2.4318 5.57951 
297 1 3.39089 5.38646 
662 2 4.41013 5.8251 
588 2 5.61476 5.31984 
321 1 6.4865 6.06928 
551 1 0.180751 6.3962 
193 1 0.952472 6.98143 
396 2 2.14091 7.12789 
142 2 3.19371 6.4449 
545 1 3.20531 7.58121 
454 2 4.27418 7.1481 
696 2 5.43856 6.59795 
718 2 6.55194 7.17951 
284 2 7.61 6.42192 
720 2 1.24034 8.02404 
289 1 0.559218 8.8851 
147 1 2.3502 8.25998 
351 1 3.28161 8.52618 
413 1 4.19302 8.23869 
216 2 5.38181 7.91584 
734 2 6.65527 8.42134 
646 2 1.05763 9.94036 
139 1 1.61168 9.01986 
598 2 2.60832 9.41042 
225 1 4.84871 8.93209 
360 2 3.90195 9.44681 
175 1 5.77477 9.00945 
264 2 5.305 9.99777 
150 2 6.63024 9.74109 
585 1 0.190463 10.7179 
246 2 1.23004 11.2046 
275 1 2.05623 10.3749 
181 1 2.32236 11.3066 
624 2 3.1691 10.5763 
485 1 4.31343 10.4523 
757 1 5.07984 11.1164 
135 1 6.07075 10.8335 
747 1 7.03696 10.7411 
341 1 0.164158 11.6823 
48 2 0.963153 12.4297 
593 1 2.04262 12.2439 
389 1 3.02326 11.9331 
675 1 3.80776 12.5739 
530 2 4.0304 11.4973 
694 2 4.88512 12.4169 
563 1 5.76641 11.7776 
726 2 6.84378 11.8122 
367 1 0.489501 13.3819 
54 2 1.67162 13.5075 
116 2 2.83246 13.0382 
382 2 3.99132 13.6657 
619 1 5.09281 13.4869 
124 2 6.07444 12.9022 
421 1 6.76842 13.7764 
195 1 7.19657 12.878 
464 2 0.811446 14.4168 
251 1 1.80366 14.9322 
442 2 2.71786 14.3124 
778 2 3.8303 14.9265 
755 1 4.90278 14.432 
30 2 5.86625 15.1609 
595 1 5.86337 14.0663 
250 2 7.11795 14.8225 
302 2 0.0385217 7.60615 
601 1 0.00567744 9.72575 
647 1 0.880004 15.4614 
612 2 0.729784 16.5093 
423 1 1.71572 15.9112 
74 2 2.78216 15.6659 
516 2 4.07405 16.2244 
245 1 4.80246 15.3914 
779 1 5.31417 16.1829 
518 2 6.75314 16.0757 
463 1 1.01084 17.551 
556 2 1.98751 16.9697 
293 1 3.06125 16.747 
489 1 3.83578 17.3155 
474 2 4.9358 17.262 
775 1 5.9809 16.849 
13 1 6.92036 17.1629 
520 2 0.780956 18.6171 
771 1 1.80331 18.0853 
80 2 2.9068 17.9251 
53 1 4.1077 18.2292 
555 1 5.08079 18.3594 
512 2 6.13371 17.9353 
657 1 6.87893 18.7563 
487 1 7.44421 17.9609 
83 1 1.06853 19.6738 
126 2 2.09622 19.1342 
325 1 1.85942 20.2204 
6 2 3.38935 19.1033 
365 1 2.81922 20.09 
503 1 4.52341 19.1494 
456 2 3.99684 20.2249 
277 1 5.03524 19.9557 
390 2 5.83404 19.1818 
620 2 7.10332 19.8459 
642 2 0.867644 20.7758 
652 2 2.17919 21.2574 
61 1 3.21544 20.9838 
583 1 4.11233 21.349 
373 1 4.98156 20.9671 
406 2 5.99621 20.4379 
573 1 6.88076 21.0791 
603 1 0.214356 21.7166 
702 2 1.21333 22.0647 
87 1 2.22815 22.3993 
222 2 3.29514 22.1056 
684 2 4.72341 22.2647 
276 2 5.87261 21.6761 
644 2 7.08977 22.178 
322 2 0.251063 22.8994 
244 2 0.774755 24.1287 
171 1 1.4675 23.1562 
745 1 1.87293 24.0414 
182 2 2.72719 23.3497 
218 2 3.70742 24.1386 
415 1 3.87505 23.0375 
256 2 4.88354 23.5627 
40 2 5.96528 22.9209 
189 1 6.96587 23.3646 
97 1 0.796054 25.266 
349 1 1.70455 24.99 
99 1 2.68972 24.5637 
655 1 3.67752 25.2437 
314 2 4.76392 24.8237 
200 2 6.07015 24.2279 
49 1 7.26466 24.2691 
625 1 6.82126 25.1103 
482 2 0.118625 26.146 
58 2 1.44226 26.2328 
540 2 2.58502 25.6601 
765 1 3.53037 26.1905 
32 2 4.60825 26.1113 
36 2 5.78045 25.525 
156 2 6.79668 26.244 
132 2 0.566224 27.2981 
475 1 1.69066 27.3334 
128 2 2.76484 26.9759 
315 1 3.96545 27.0429 
183 1 4.77565 27.5858 
546 2 5.64053 26.8485 
437 1 5.73488 27.9509 
152 2 6.77744 27.5433 
580 2 1.17619 28.3888 
240 2 2.42072 28.1989 
769 1 2.99612 29.1113 
180 2 3.71242 28.1098 
4 2 4.94586 28.7342 
565 1 3.95315 29.1954 
723 1 6.11056 28.8385 
492 2 7.206 28.7357 
168 2 0.633343 29.5144 
424 2 1.93497 29.4767 
213 1 3.37765 29.9748 
76 2 4.5856 30.1037 
379 1 5.59703 29.6697 
140 2 6.6901 29.8913 
594 2 8.02722 0.262734 
241 1 8.63361 1.20325 
672 2 9.36644 0.362132 
539 1 10.2198 1.07608 
626 2 10.6283 0.0140636 
440 2 11.3031 1.1144 
430 2 15.068 0.137336 
719 1 12.9885 0.286029 
409 1 13.9414 0.228677 
659 1 14.5127 1.08856 
716 2 8.58209 2.31278 
113 1 9.50221 1.67239 
698 2 10.6256 2.18747 
249 1 12.3838 1.04105 
8 2 12.0873 2.12607 
148 2 13.436 1.30734 
57 1 13.1718 2.38044 
656 2 12.0196 15.1662 
786 2 14.3065 2.26691 
129 1 8.0902 3.28795 
155 1 9.6354 2.65358 
476 2 9.14535 3.64208 
767 1 10.3085 3.3722 
34 2 11.4039 3.21413 
371 1 12.5737 3.1641 
446 2 13.6721 3.39059 
455 1 14.7498 3.6709 
614 2 8.04011 4.35232 
537 1 10.0315 4.3011 
428 2 9.17119 5.01109 
286 2 11.1084 4.48836 
613 1 12.1585 4.01817 
435 1 13.0759 4.33145 
85 1 14.0742 4.44235 
115 1 8.03113 5.41962 
705 1 8.75021 6.02355 
73 1 10.2856 5.25946 
344 2 9.85628 6.28585 
176 2 11.2016 5.92574 
214 2 12.2302 5.10791 
258 2 13.5112 5.40242 
291 1 14.5269 5.82255 
460 2 8.82229 7.08936 
131 1 9.83865 7.54194 
581 1 10.709 6.99328 
693 1 11.6725 6.97505 
735 1 12.671 7.38991 
724 2 12.5602 6.31087 
615 1 13.5092 7.79684 
10 2 13.8049 6.72105 
760 2 15.13 6.87166 
444 2 8.90329 8.35918 
434 2 7.73631 7.73461 
459 1 10.7253 7.9569 
504 2 11.8162 8.06511 
285 1 12.1171 9.12236 
469 1 12.8786 8.52299 
340 2 14.0051 8.79457 
441 1 14.4529 7.73516 
260 2 7.76472 9.04304 
243 1 9.96909 8.57675 
22 2 8.8937 9.64048 
165 1 9.96722 9.55749 
488 2 10.986 9.08131 
706 2 11.7662 10.1587 
754 2 13.0598 9.71476 
363 1 14.1981 9.95071 
89 1 14.9562 9.33167 
121 1 7.80128 10.1563 
645 1 7.85191 11.2419 
375 1 8.61798 10.689 
772 2 9.72987 10.7383 
157 1 10.6888 10.1925 
709 1 10.7767 11.1646 
27 1 11.7298 11.2635 
743 1 12.6308 10.8174 
445 1 13.6087 10.7011 
650 2 14.4581 11.4118 
429 1 15.0799 15.247 
715 1 7.88136 12.2072 
288 2 8.91576 11.7557 
417 1 10.0999 11.9063 
137 1 11.0993 12.1036 
649 1 12.1764 12.0845 
310 2 13.1948 11.7506 
543 1 14.0382 12.4361 
508 2 15.1799 12.5658 
221 1 8.5456 12.8671 
402 2 7.87954 13.7324 
549 1 9.48154 12.6887 
98 2 9.19629 13.7972 
484 2 10.4549 13.1235 
192 2 11.7261 13.0495 
500 2 13.0111 13.0593 
248 2 14.2309 13.4898 
756 2 8.43771 14.8662 
259 1 10.1585 14.2792 
682 2 11.2195 14.2006 
290 2 15.1144 4.795 
701 1 14.4241 14.5608 
127 1 12.3124 14.0115 
336 2 13.3109 14.4232 
770 2 9.63431 15.2413 
330 2 15.2358 10.4137 
273 1 10.7499 15.2097 
509 1 7.80533 15.7612 
45 1 8.77749 15.9785 
471 1 10.1261 16.2146 
490 2 13.0321 29.6975 
742 2 11.2329 16.2025 
578 2 12.4785 16.4657 
205 1 13.0489 15.4998 
169 1 13.5625 16.3181 
507 1 13.9971 15.3974 
196 2 14.669 16.2618 
190 2 14.269 29.6329 
242 2 7.98222 16.8598 
458 2 9.2982 16.9585 
536 2 10.5479 17.305 
167 1 11.657 17.2718 
448 2 12.688 17.7255 
710 2 13.9489 17.344 
502 2 8.5717 18.0278 
299 1 7.84163 18.8982 
781 1 9.69786 18.0626 
689 1 10.7132 18.3895 
521 1 11.6524 18.2553 
292 2 12.4546 19.0371 
106 2 13.6338 18.5933 
741 1 14.6842 18.2006 
671 1 8.20377 19.8021 
149 1 8.84691 19.0922 
586 2 9.93383 19.1524 
68 2 9.21964 20.2344 
56 2 11.2269 19.4368 
105 1 10.3698 20.1801 
324 2 12.2514 20.296 
350 2 13.529 19.8901 
331 1 14.5603 19.1592 
773 1 14.6201 20.1133 
748 2 7.95092 20.8798 
531 1 8.96815 21.3126 
268 2 10.0903 21.2575 
207 1 11.2056 20.6817 
648 2 12.2364 21.5823 
633 1 13.1785 20.9603 
534 2 14.291 21.143 
47 1 8.20602 21.9604 
736 2 9.27496 22.3684 
449 1 11.1318 21.6486 
3 1 10.4128 22.3426 
768 2 11.4594 22.7247 
348 2 12.7431 22.7546 
133 1 13.4698 21.9053 
103 1 13.8329 22.8343 
179 1 14.5639 22.2434 
708 2 8.041 23.0616 
605 1 9.08734 23.4536 
25 1 10.0398 23.2308 
110 2 10.9192 23.8823 
210 2 12.1809 23.8898 
354 2 13.4771 23.8789 
787 1 14.7006 23.2498 
51 1 14.4983 24.1964 
666 2 8.3579 24.2944 
303 1 8.98955 25.1938 
414 2 9.71177 24.3689 
301 1 10.6553 24.9506 
533 1 11.6194 24.8583 
794 2 12.854 24.999 
395 1 13.9423 25.0868 
600 2 15.0609 25.1187 
28 2 7.88525 25.4922 
552 2 9.04155 26.2711 
667 1 9.91725 25.5849 
501 1 10.0678 26.6843 
762 2 10.983 25.9911 
15 1 12.0526 25.7125 
582 2 13.0619 26.3032 
604 2 14.3358 26.1923 
376 2 7.90148 26.809 
761 1 7.90453 27.896 
722 2 8.97955 27.5397 
571 1 10.0777 27.6772 
590 2 11.0773 27.2692 
261 1 11.9664 26.6417 
560 2 12.5432 27.5648 
494 2 13.8088 27.4434 
374 2 15.1047 27.258 
544 2 8.52027 28.8338 
391 1 9.54339 28.4826 
737 1 10.486 28.5879 
394 2 11.553 28.412 
481 1 12.6395 28.6608 
399 1 13.5891 28.6117 
704 2 14.6878 28.4366 
79 1 7.78873 29.6915 
505 1 8.75991 29.9182 
514 2 9.80541 29.5449 
33 1 10.9894 29.4548 
339 1 11.9652 29.4058 
566 2 11.9133 30.4805 
683 1 15.8704 0.88888 
639 1 16.926 0.823102 
122 2 18.06 0.615807 
688 2 19.3694 1.00201 
408 2 20.6695 0.86679 
320 2 21.9649 0.857443 
370 2 16.3709 1.85874 
519 1 17.5123 1.61354 
597 1 17.2049 2.51608 
491 1 18.4787 1.65291 
587 1 18.1421 2.55538 
759 1 20.1843 1.85649 
780 2 19.2643 2.44551 
468 2 21.3284 1.95248 
506 2 22.7489 1.88479 
632 2 15.4566 2.79178 
707 1 15.7319 3.87486 
347 1 16.4999 3.1599 
403 1 17.5361 3.38553 
237 1 18.6029 3.40754 
117 1 19.5573 3.53364 
100 2 20.516 2.95978 
9 1 21.2382 3.78352 
84 2 22.0054 2.98132 
524 2 21.7933 14.777 
194 2 16.7594 4.25019 
658 2 18.0327 4.34337 
353 1 19.1292 4.41752 
740 2 20.2805 4.37633 
764 2 21.4588 4.87063 
153 1 22.2024 4.03944 
95 1 22.569 4.93257 
685 1 16.2113 5.20199 
267 1 15.4809 5.83028 
308 2 17.3523 5.44495 
217 1 18.4866 5.31382 
548 2 19.5826 5.4578 
749 1 20.6572 5.64896 
392 2 21.7431 6.08885 
125 1 15.2702 1.66158 
172 2 16.429 6.36964 
309 1 16.0814 7.45724 
739 1 17.5697 6.52928 
39 1 17.0265 7.31762 
352 2 18.6525 6.38527 
661 1 19.1857 7.34243 
91 1 19.8013 6.54976 
154 2 20.2446 7.62616 
651 1 20.7633 6.62296 
478 2 21.5602 7.43691 
422 2 22.7172 6.8951 
18 2 15.3969 8.31107 
410 2 16.7984 8.38975 
568 2 18.0858 7.58651 
527 1 17.9129 8.67334 
60 2 19.1051 8.45107 
281 1 20.1714 8.74627 
333 1 21.0595 8.40966 
357 1 22.5692 7.97767 
2 2 22.0239 8.91325 
782 2 16.0579 9.4546 
788 2 17.2894 9.63199 
118 2 18.559 9.59192 
24 2 19.8439 9.77869 
433 1 20.9653 9.39654 
346 2 21.879 10.1719 
296 2 20.4479 14.6593 
332 2 16.5563 10.7629 
206 2 17.8997 10.7606 
425 1 19.0382 10.5678 
792 2 20.0209 11.1085 
673 1 20.8098 10.3625 
318 2 21.3292 11.404 
229 1 22.4647 11.0777 
283 1 15.5725 11.4615 
638 2 16.4539 12.0804 
67 1 17.5107 11.784 
123 1 18.1816 12.4705 
362 2 18.8655 11.6465 
20 2 20.3647 12.3211 
29 1 22.2876 12.0092 
191 1 16.1246 13.1595 
790 2 15.3909 14.0246 
358 2 17.2718 13.0597 
199 1 18.3265 13.4257 
272 2 19.2558 12.8645 
789 1 20.2102 13.4895 
334 2 21.5194 12.7784 
411 1 21.1293 13.8064 
641 1 22.0967 13.7324 
66 2 22.8633 12.9605 
37 1 15.9942 15.0321 
160 2 16.6503 14.1545 
575 1 18.5721 15.2195 
758 2 17.882 14.398 
265 1 19.5067 15.2094 
654 2 19.2078 14.1545 
733 1 22.853 5.81575 
262 2 15.9557 16.1582 
266 2 17.0655 15.3895 
381 1 17.0033 16.5056 
164 2 18.0688 16.1796 
479 1 19.1703 16.1105 
59 1 20.1733 15.8716 
553 1 21.0813 15.5927 
355 1 21.9711 15.9935 
75 1 22.5215 30.3692 
416 2 15.3484 17.3153 
130 2 16.6168 17.5315 
559 1 17.6917 17.2215 
202 2 18.8383 17.238 
81 1 19.8627 16.7845 
668 2 20.9785 16.6924 
493 1 22.0816 16.9894 
170 2 15.751 18.5395 
589 1 16.8521 18.6132 
634 2 17.9521 18.2824 
557 1 19.0818 18.3167 
686 2 20.0997 17.8505 
635 1 19.8095 18.9886 
432 2 21.4 17.8832 
317 1 20.7526 18.7761 
55 1 22.2745 18.4805 
517 1 15.4185 19.5577 
577 1 16.3799 19.5698 
738 2 17.5009 19.4849 
498 2 18.7862 19.3861 
419 1 19.4437 20.2997 
584 2 20.4866 19.8774 
220 2 21.6847 19.3732 
679 1 22.5899 20.0043 
438 2 15.6331 20.6109 
234 2 16.9004 20.6153 
62 2 18.2113 20.5363 
368 2 19.1129 21.3776 
270 2 20.3699 21.1394 
480 2 21.616 20.6654 
163 1 22.2032 21.5995 
329 1 16.2976 21.5687 
473 1 15.3068 21.6369 
558 2 15.6775 22.663 
606 2 17.6106 21.693 
617 1 16.7606 22.3997 
108 2 18.5846 22.5098 
574 2 19.9358 22.3715 
63 1 21.2503 21.8073 
255 1 20.9669 22.7238 
90 2 22.0878 22.6802 
562 2 15.6109 23.9582 
385 1 17.563 22.931 
529 1 16.6098 23.356 
173 1 17.4582 23.8916 
345 1 18.3879 23.6134 
397 1 19.3096 23.3182 
596 2 20.3299 23.6663 
17 1 21.4604 23.5605 
342 2 22.4552 24.0944 
687 1 16.1798 25.1668 
327 1 16.6347 24.3351 
637 1 17.1757 25.1231 
776 2 18.1965 24.713 
311 1 19.2372 24.28 
377 1 20.0847 24.7614 
670 2 21.2134 24.6104 
72 2 22.1811 25.4 
522 2 15.7127 26.1823 
677 1 16.7884 26.02 
496 2 17.9248 25.9921 
499 1 18.8374 26.5769 
592 2 19.2186 25.4709 
239 1 19.7693 26.4152 
102 2 20.6476 25.7297 
77 1 21.5801 26.3611 
162 2 22.6852 26.544 
443 1 16.3001 27.1245 
185 1 17.2293 26.8811 
629 1 17.0534 27.8597 
618 2 18.1674 27.4625 
226 2 19.4721 27.5224 
252 2 20.6669 27.0172 
158 2 21.8086 27.519 
298 2 16.0003 28.2045 
16 2 16.8896 29.1721 
109 1 17.7783 28.5003 
763 1 18.772 28.4857 
653 1 19.7458 28.5704 
203 1 20.6151 28.0977 
201 1 21.4904 28.5624 
184 2 20.6196 29.2245 
271 1 22.4751 28.4793 
486 2 15.5523 29.4006 
208 2 16.3408 30.3819 
515 1 17.4079 30.2411 
750 2 18.2205 29.5139 
141 1 18.894 30.4005 
326 2 19.9865 30.3189 
307 1 19.3286 29.4255 
418 2 21.3405 30.2615 
405 1 21.9822 29.3861 
305 1 22.7369 15.3439 
323 1 23.0453 0.789414 
472 2 24.0817 1.19436 
306 2 25.0061 0.180831 
799 1 25.2444 1.25438 
282 2 26.3473 1.1094 
427 1 26.1242 0.0557177 
616 2 27.2933 0.0652696 
538 2 28.5763 0.515685 
784 2 29.7062 1.09814 
41 1 23.798 2.28249 
343 1 24.7382 2.08107 
65 1 25.7458 2.11926 
510 2 27.6295 1.33996 
532 2 26.8355 2.30718 
547 1 28.7197 1.64122 
146 2 29.522 2.42935 
236 2 30.0984 14.0248 
561 1 23.1025 2.97174 
535 1 24.063 3.2157 
224 2 25.1533 3.06999 
777 1 26.2621 3.23093 
497 1 27.2865 3.30651 
426 2 28.1431 2.59784 
523 1 28.9364 3.37153 
607 1 29.9192 3.49052 
136 2 23.2989 4.05854 
528 2 24.5659 4.25749 
731 1 25.6824 4.01509 
730 2 25.631 5.09024 
42 2 26.7656 4.27017 
104 2 28.0837 4.08109 
676 2 29.3206 4.4247 
599 1 23.572 5.1418 
714 2 23.8613 6.316 
31 1 24.501 5.35311 
744 2 25.1346 6.24381 
431 1 26.2092 6.15285 
19 1 27.625 5.07961 
461 1 26.7014 5.34944 
44 2 27.3971 6.20067 
388 2 28.6418 5.52272 
700 2 29.957 5.51862 
541 1 24.6295 7.19667 
161 1 25.6503 7.20162 
783 1 26.6059 7.00161 
134 2 27.5725 7.5315 
569 1 28.4057 6.59738 
35 1 28.6396 7.49908 
564 2 29.5291 6.71479 
678 2 28.979 14.6499 
112 2 23.6773 7.70579 
467 1 23.157 8.77074 
369 1 24.1024 8.6948 
798 2 25.0809 8.20084 
144 2 26.3451 8.07264 
542 2 27.3487 8.80449 
450 2 28.612 8.61767 
513 1 29.4837 7.84553 
138 2 29.9423 8.81349 
197 1 23.8918 9.62054 
335 1 24.8375 9.29363 
14 2 25.9303 9.29426 
579 1 26.9096 9.80174 
796 2 28.052 9.87546 
711 1 29.1627 9.60687 
338 2 30.3643 0.0262055 
316 2 23.4727 10.6303 
550 2 24.8479 10.372 
300 2 26.1187 10.5965 
279 1 27.267 10.6862 
223 1 28.8889 10.5665 
304 2 28.1429 11.3537 
691 1 29.8037 10.3332 
364 2 29.5935 11.4288 
631 1 23.8172 12.4827 
609 1 23.2147 11.7401 
278 2 24.3628 11.5346 
1 1 25.469 11.4912 
111 1 25.9253 12.3313 
674 2 26.8204 11.7012 
361 1 27.7218 12.4004 
692 2 28.8267 12.448 
230 2 30.1001 12.687 
511 1 23.9505 13.445 
602 2 24.8763 12.7022 
235 1 24.9525 13.8392 
795 1 25.7781 13.2954 
188 2 26.828 13.0372 
96 2 28.0539 13.5243 
43 1 29.1619 13.4937 
680 2 23.0782 14.2715 
725 1 24.1738 14.378 
359 1 24.9794 14.9072 
178 2 25.9822 14.3457 
753 1 22.883 9.69497 
797 1 27.883 14.6257 
337 1 27.0644 14.1116 
785 1 30.4827 1.88001 
198 2 26.9513 15.2462 
420 2 23.8628 15.4239 
462 2 23.0567 16.4073 
470 2 24.9499 16.0539 
447 1 25.8428 15.4255 
366 2 26.2916 16.435 
681 1 27.4192 16.2405 
211 1 28.1002 15.5648 
380 2 29.1264 15.9337 
7 1 30.1406 16.403 
404 2 30.2649 15.2953 
328 2 22.9845 17.6756 
640 2 24.1734 17.0838 
177 1 25.35 17.0688 
372 2 26.2522 17.7512 
477 1 27.1758 17.1652 
46 2 28.2878 16.9367 
628 2 30.387 17.5159 
627 1 29.3918 17.0306 
791 1 23.9436 18.2366 
356 2 23.1836 19.0473 
690 2 25.0283 18.1198 
187 1 25.7197 18.9845 
713 1 26.6662 18.7314 
608 2 27.7155 18.1287 
228 2 29.0494 18.0877 
11 1 28.4366 19.1039 
151 1 30.1519 18.5624 
383 1 23.644 20.0385 
622 2 24.4907 19.2883 
611 1 25.4008 19.9132 
766 2 26.5279 19.85 
465 1 27.4792 19.1901 
400 2 27.7612 20.2132 
636 2 29.0076 20.1357 
69 1 29.4165 19.1437 
312 2 30.4402 19.6554 
728 2 23.09 20.9787 
483 1 23.9689 21.6236 
800 2 24.5523 20.6731 
752 2 25.8494 20.9381 
453 1 26.9676 21.0277 
269 1 28.0295 21.2406 
231 1 28.9838 21.2462 
274 2 30.0537 20.848 
21 1 23.0794 22.129 
86 2 24.0433 22.7247 
572 2 25.05 21.9381 
52 2 26.3114 22.1425 
107 1 27.3719 21.9254 
38 2 28.4498 22.2733 
378 2 29.7065 22.0995 
71 1 23.0612 23.1805 
384 2 23.8729 23.9963 
232 2 25.1935 23.2568 
174 2 26.4436 23.3872 
253 1 27.465 22.8839 
82 2 27.5674 24.007 
215 1 28.4354 23.3483 
50 2 29.1379 24.1884 
703 1 30.1776 23.8235 
621 1 29.4364 23.135 
319 1 23.1925 24.9427 
145 1 24.1439 25.0807 
70 2 25.099 24.5339 
88 2 26.3752 24.6437 
699 1 27.3886 25.0995 
219 1 28.2931 24.8396 
119 1 29.1439 25.3083 
166 2 30.2031 24.9479 
233 1 23.553 25.8717 
92 2 24.6968 26.0233 
495 1 25.6718 25.5159 
729 1 25.7218 26.5246 
554 2 26.718 25.9347 
280 2 28.1513 25.9375 
664 2 29.3899 26.3602 
663 1 22.9074 27.6138 
398 2 23.8816 27.0359 
669 1 24.9683 27.1365 
660 2 25.8549 27.793 
101 1 26.5594 27.0035 
93 1 27.4777 26.7968 
412 2 27.2177 27.9035 
630 2 28.4836 27.2377 
313 1 29.9426 27.3077 
120 2 23.7176 28.3287 
143 1 24.7705 28.1031 
697 1 25.4541 28.8084 
623 1 26.4474 28.7515 
204 2 27.5421 29.1756 
393 1 28.2558 28.306 
12 2 28.9928 29.1025 
227 1 29.2681 28.0193 
114 2 30.3303 28.4059 
466 2 23.7478 30.4532 
386 2 23.0868 29.4046 
732 2 24.487 29.3799 
209 1 26.562 29.6993 
457 1 25.5927 29.7343 
695 1 28.2933 29.9679 
591 1 29.3065 30.1956 
643 1 30.0168 29.4728 
