
variable Thigh equal 3285+1000
variable Tlow  equal 3285-1500

units metal
boundary p p p
atom_style atomic

read_data ./a15.data
Reading data file ...
  orthogonal box = (0 0 0) to (58.745 58.745 54.226)
  3 by 4 by 2 MPI processor grid
  reading atoms ...
  16224 atoms
  read_data CPU = 0.134 seconds
replicate 3 1 1
Replication is creating a 3x1x1 = 3 times larger system...
  orthogonal box = (0 0 0) to (176.235 58.745 54.226)
  6 by 2 by 2 MPI processor grid
  48672 atoms
  replicate CPU = 0.181 seconds

variable xlo equal xlo+lx/3
variable xhi equal xhi-lx/3
region solid block ${xlo} ${xhi} INF INF INF INF units box
region solid block 58.745 ${xhi} INF INF INF INF units box
region solid block 58.745 117.49 INF INF INF INF units box
group solid region solid
16692 atoms in group solid
group liquid subtract all solid
31980 atoms in group liquid
set group solid type 2
Setting atom values ...
  16692 settings made for type
write_dump all atom dump.init.${namestr}.atom
write_dump all atom dump.init.T2750_n1_A15.atom
WARNING: Calling write_dump before a full system init. (../write_dump.cpp:65)

timestep 0.002
variable   Tdamp   equal  dt*100
variable   Pdamp   equal  dt*1000
variable   P       equal  0.0

#------------setting potential---------------
pair_style      eam/alloy
pair_coeff      * * ../Ta.lammps.eam Ta Ta
#-------------potential end------------------

neighbor 2.0 bin
neigh_modify delay 10 every 1 check yes

velocity all create ${Tlow} $n mom yes dist gaussian units box
velocity all create 1785 $n mom yes dist gaussian units box
velocity all create 1785 1 mom yes dist gaussian units box
thermo 100
thermo_style custom step temp press atoms vol pe etotal

fix mom all momentum 1 linear 1 1 1 rescale

fix 1 all npt temp ${Tlow} ${Tlow} ${Tdamp} iso $P $P ${Pdamp}
fix 1 all npt temp 1785 ${Tlow} ${Tdamp} iso $P $P ${Pdamp}
fix 1 all npt temp 1785 1785 ${Tdamp} iso $P $P ${Pdamp}
fix 1 all npt temp 1785 1785 0.2 iso $P $P ${Pdamp}
fix 1 all npt temp 1785 1785 0.2 iso 0 $P ${Pdamp}
fix 1 all npt temp 1785 1785 0.2 iso 0 0 ${Pdamp}
fix 1 all npt temp 1785 1785 0.2 iso 0 0 2
run 50000
Neighbor list info ...
  update: every = 1 steps, delay = 10 steps, check = yes
  max neighbors/atom: 2000, page size: 100000
  master list distance cutoff = 7.9
  ghost atom cutoff = 7.9
  binsize = 3.95, bins = 45 15 14
  1 neighbor lists, perpetual/occasional/extra = 1 0 0
  (1) pair eam/alloy, perpetual
      attributes: half, newton on
      pair build: half/bin/atomonly/newton
      stencil: half/bin/3d
      bin: standard
Per MPI rank memory allocation (min/avg/max) = 3.941 | 4.037 | 4.323 Mbytes
   Step          Temp          Press         Atoms        Volume         PotEng         TotEng    
         0   1785           2184169.7          48672   561397.72     -206358.28     -195128.45    
       100   1851.6646      1414522.5          48672   630285.91     -284583.69     -272934.46    
       200   1843.8561      900600.78          48672   683969.18     -322980.6      -311380.49    
       300   1739.3178      609404.43          48672   729357.13     -343839.3      -332896.87    
       400   1688.17        428890.54          48672   768623.68     -355921.45     -345300.8     
       500   1677.2987      309094.15          48672   802949.88     -363171.35     -352619.1     
       600   1682.4601      222769.96          48672   832777.52     -367548.16     -356963.43    
       700   1684.8359      158377.08          48672   858376.89     -370016.29     -359416.61    
       800   1706.9267      110249.52          48672   879885.05     -371382.39     -360643.74    
       900   1721.9403      74578.103          48672   897486.76     -371951.48     -361118.38    
      1000   1748.0422      48170.729          48672   911433.47     -372160.59     -361163.27    
      1100   1774.9188      29563.829          48672   921960.96     -372174.64     -361008.24    
      1200   1790.2984      16930.883          48672   929548.7      -372084.69     -360821.53    
      1300   1801.9999      8566.9195          48672   934579.49     -372051.57     -360714.79    
      1400   1802.56        3978.2842          48672   937571.13     -372136.53     -360796.22    
      1500   1783.5414      1249.2445          48672   939019.54     -372250.53     -361029.88    
      1600   1777.2675      476.60972          48672   939496.66     -372412.32     -361231.14    
      1700   1782.4768      65.254906          48672   939732.46     -372573.45     -361359.49    
      1800   1780.5618      22.613006          48672   939809.87     -372610.24     -361408.33    
      1900   1784.6015      17.092069          48672   939832.93     -372631.08     -361403.76    
      2000   1797.2422      438.32954          48672   939925.17     -372724.23     -361417.38    
      2100   1782.6769     -67.796542          48672   940126.17     -372718.1      -361502.89    
      2200   1786.4118      53.483714          48672   940050.68     -372878.77     -361640.06    
      2300   1778.6349     -69.962614          48672   940011.46     -372974.95     -361785.16    
      2400   1775.7774      26.200903          48672   940011.62     -373039.32     -361867.51    
      2500   1792.6282      212.56655          48672   940002.29     -373135.63     -361857.81    
      2600   1800.4497      199.20155          48672   940130.2      -373163.46     -361836.43    
      2700   1791.9429     -59.117882          48672   940235.49     -373133.15     -361859.64    
      2800   1785.3361     -130.74363          48672   940195.51     -373201.33     -361969.39    
      2900   1778.2566     -87.894179          48672   940051.89     -373290.81     -362103.41    
      3000   1784.3456     -281.66076          48672   940026.51     -373415.65     -362189.94    
      3100   1790.0149      202.68721          48672   940022.86     -373468.3      -362206.93    
      3200   1786.1402      32.369032          48672   940164.48     -373452.38     -362215.38    
      3300   1795.0183     -166.32546          48672   940267.06     -373525.26     -362232.4     
      3400   1792.4622     -222.23092          48672   940247.59     -373563.5      -362286.72    
      3500   1782.1369      50.293366          48672   940175.77     -373587.03     -362375.21    
      3600   1782.7727     -5.4662445          48672   940161.33     -373674.54     -362458.72    
      3700   1774.9754      41.470482          48672   940181.72     -373691.31     -362524.55    
      3800   1777.3343     -58.662271          48672   940183.07     -373701.07     -362519.47    
      3900   1798.7219     -141.95267          48672   940217.32     -373793.39     -362477.23    
      4000   1789.6639      337.21991          48672   940275.85     -373770.62     -362511.45    
      4100   1783.9277     -530.12038          48672   940330.14     -373834.89     -362611.81    
      4200   1787.3965      274.67403          48672   940115.71     -373951.32     -362706.42    
      4300   1781.6559      20.258678          48672   940200.22     -374002.28     -362793.49    
      4400   1775.3416      89.877464          48672   940228.78     -373989.74     -362820.67    
      4500   1782.5328      96.914672          48672   940202.68     -373979.17     -362764.86    
      4600   1787.7632      29.125317          48672   940417.29     -373954.84     -362707.63    
      4700   1797.7594      84.256921          48672   940463.46     -374039.89     -362729.79    
      4800   1794.5664     -366.77418          48672   940369.39     -374143.7      -362853.69    
      4900   1787.3757      384.55948          48672   940159.48     -374236.11     -362991.33    
      5000   1787.7028     -217.8681           48672   940286.35     -374328.64     -363081.81    
      5100   1783.8864     -143.79918          48672   940233.77     -374314.17     -363091.35    
      5200   1779.9799      439.32137          48672   940171.58     -374242.44     -363044.19    
      5300   1795.9497      114.07714          48672   940406.07     -374310.97     -363012.25    
      5400   1797.9405     -379.51949          48672   940574.31     -374375.96     -363064.72    
      5500   1786.0664      329.43156          48672   940415.15     -374411.89     -363175.35    
      5600   1778.0611     -286.97931          48672   940401.07     -374463.53     -363277.35    
      5700   1770.1293      371.50134          48672   940179.82     -374457.47     -363321.2     
      5800   1785.7177     -63.939291          48672   940395.93     -374525.05     -363290.71    
      5900   1781.6601     -90.233474          48672   940487.59     -374470.63     -363261.82    
      6000   1786.907      -259.39954          48672   940586.64     -374551.86     -363310.04    
      6100   1784.698      -77.312512          48672   940506.91     -374635.92     -363407.99    
      6200   1784.8909      43.826094          48672   940375.46     -374706.72     -363477.58    
      6300   1773.2223      45.11071           48672   940248.92     -374628.73     -363473       
      6400   1794.9805      357.59333          48672   940254.51     -374711.5      -363418.88    
      6500   1789.6836     -53.394453          48672   940464.22     -374699.32     -363440.02    
      6600   1787.3581      2.6857357          48672   940546.32     -374742.37     -363497.7     
      6700   1780.4517     -199.42657          48672   940579.94     -374761.85     -363560.64    
      6800   1778.9371      118.96771          48672   940410.03     -374805.45     -363613.76    
      6900   1773.5949     -78.030765          48672   940421.37     -374808.18     -363650.1     
      7000   1797.2295      123.84776          48672   940434.67     -374913.74     -363606.97    
      7100   1793.8654     -88.788471          48672   940496.85     -374835.84     -363550.24    
      7200   1788.194       250.14876          48672   940488.71     -374815.3      -363565.38    
      7300   1783.7044     -321.98896          48672   940732.63     -374912.76     -363691.08    
      7400   1783.3272      191.79975          48672   940488        -374942.15     -363722.85    
      7500   1781.6521     -41.286947          48672   940467.54     -374983.61     -363774.84    
      7600   1783.4527      24.310153          48672   940430.45     -375040.06     -363819.96    
      7700   1788.4694     -35.873041          48672   940371.93     -375094.74     -363843.09    
      7800   1783.3725     -318.687            48672   940503.72     -375078.67     -363859.08    
      7900   1784.6108      55.712497          48672   940375.4      -375087.22     -363859.84    
      8000   1792.4256      105.26284          48672   940291.38     -375118.99     -363842.44    
      8100   1784.4042      137.29178          48672   940352.53     -375069.88     -363843.8     
      8200   1787.4498     -229.89849          48672   940432.93     -375174.9      -363929.66    
      8300   1785.7487      383.01981          48672   940285.57     -375219.79     -363985.26    
      8400   1789.5575     -93.531766          48672   940499.75     -375257.16     -363998.66    
      8500   1782.514      -61.133164          48672   940528.37     -375229.12     -364014.93    
      8600   1784.8132      271.37612          48672   940489.18     -375166.73     -363938.07    
      8700   1798.1947     -113.44743          48672   940615.12     -375213.37     -363900.53    
      8800   1792.8718     -156.59378          48672   940697.19     -375282.93     -364003.57    
      8900   1792.131       106.3825           48672   940548.29     -375347.31     -364072.62    
      9000   1791.4051     -125.00527          48672   940555.52     -375390.68     -364120.56    
      9100   1788.2643     -32.05754           48672   940556.76     -375422.88     -364172.51    
      9200   1778.6212      32.921693          48672   940598.61     -375418.46     -364228.76    
      9300   1773.4168     -282.58319          48672   940738.09     -375431.77     -364274.81    
      9400   1775.5023      40.389133          48672   940573.37     -375495.67     -364325.59    
      9500   1778.9035      305.57147          48672   940526.7      -375513.05     -364321.58    
      9600   1796.1629     -21.706986          48672   940810.18     -375536.24     -364236.18    
      9700   1795.8221     -244.83475          48672   940848        -375502.6      -364204.69    
      9800   1792.1734      454.2693           48672   940788.32     -375538.8      -364263.84    
      9900   1786.8526     -571.08943          48672   941106.84     -375573.82     -364332.34    
     10000   1788.4444      39.767693          48672   940643.48     -375618.3      -364366.8     
     10100   1791.3982      307.68678          48672   940490.34     -375693.12     -364423.04    
     10200   1777.029      -161.01107          48672   940729.3      -375664.71     -364485.03    
     10300   1777.7837     -398.15204          48672   940777.37     -375692.68     -364508.25    
     10400   1785.5307      287.13554          48672   940544.13     -375748.75     -364515.58    
     10500   1785.9187      49.312742          48672   940636.17     -375811.67     -364576.06    
     10600   1789.0145      16.651312          48672   940829.64     -375875.63     -364620.54    
     10700   1776.6351     -259.79334          48672   940830.63     -375810.95     -364633.75    
     10800   1792.7998      205.75592          48672   940564.64     -375856.32     -364577.42    
     10900   1794.674      -104.40257          48672   940714.39     -375817.2      -364526.51    
     11000   1786.6659     -219.16387          48672   940953.46     -375837.78     -364597.47    
     11100   1783.063       30.633142          48672   940799.51     -375915.51     -364697.87    
     11200   1782.6886      609.77335          48672   940613.68     -375955.8      -364740.51    
     11300   1782.4372     -204.42638          48672   940919.96     -376011.77     -364798.06    
     11400   1781.2863     -317.50902          48672   940863.91     -376043.39     -364836.93    
     11500   1781.8352      224.69915          48672   940719.48     -376085.8      -364875.88    
     11600   1790.827      -70.590994          48672   940858.81     -376207.91     -364941.42    
     11700   1776.512      -120.94514          48672   940775.69     -376188.51     -365012.08    
     11800   1780.0976      30.497214          48672   940784.22     -376186.13     -364987.14    
     11900   1786.0812      154.34264          48672   940968.09     -376134.85     -364898.22    
     12000   1801.9546     -256.39718          48672   941108.89     -376202.31     -364865.82    
     12100   1803.6466     -90.474918          48672   940840.19     -376267.01     -364919.87    
     12200   1798.7319     -35.708275          48672   940756.4      -376308.75     -364992.54    
     12300   1783.644      -83.127763          48672   940789.29     -376292.69     -365071.39    
     12400   1780.9359      19.17247           48672   940819.84     -376329.94     -365125.68    
     12500   1781.0328     -322.06988          48672   940808.15     -376366.17     -365161.3     
     12600   1789.8816      528.15195          48672   940654.4      -376409.32     -365148.78    
     12700   1793.8265     -113.09559          48672   941094.5      -376422.07     -365136.71    
     12800   1784.6652     -179.12039          48672   941197.51     -376371.65     -365143.93    
     12900   1783.8976      23.333358          48672   940856        -376442.33     -365219.44    
     13000   1782.981       223.1131           48672   940870.01     -376505.58     -365288.45    
     13100   1771.1653     -341.77371          48672   941202.01     -376449.39     -365306.6     
     13200   1784.2288      216.69993          48672   940921.75     -376495.1      -365270.12    
     13300   1791.8943      102.5565           48672   940923.17     -376464.61     -365191.4     
     13400   1797.0555     -287.79187          48672   941243.47     -376471.68     -365166.01    
     13500   1786.1748     -6.4975646          48672   941091.37     -376531.74     -365294.52    
     13600   1793.6712      214.24788          48672   940851.17     -376641.59     -365357.21    
     13700   1777.8016     -177.88557          48672   940984.71     -376606.41     -365421.87    
     13800   1792.8281      126.89136          48672   940851.53     -376746        -365466.92    
     13900   1779.8207     -28.682086          48672   940845.37     -376717.47     -365520.23    
     14000   1780.3136      188.51284          48672   940907.47     -376748.78     -365548.44    
     14100   1792.0744     -244.26468          48672   941131.08     -376749.55     -365475.22    
     14200   1787.0632      147.03201          48672   941101.61     -376655.98     -365413.17    
     14300   1780.3733      3.7040823          48672   941260.47     -376659.35     -365458.63    
     14400   1796.0662     -115.464            48672   941145.42     -376847.08     -365547.63    
     14500   1787.6517      518.58899          48672   940844.12     -376830.79     -365584.28    
     14600   1783.4999     -497.49147          48672   941309.92     -376815.04     -365594.65    
     14700   1774.8896      221.91331          48672   940969.1      -376780.74     -365614.52    
     14800   1781.9763      758.22942          48672   940882.39     -376877.36     -365666.56    
     14900   1786.255      -996.0622           48672   941618.93     -376964.34     -365726.62    
     15000   1778.9161      839.74007          48672   940843.25     -376908.3      -365716.75    
     15100   1784.3921      271.38017          48672   941024.61     -376833.9      -365607.89    
     15200   1786.8872     -941.73676          48672   941660.53     -376832.18     -365590.48    
     15300   1786.7578      686.56616          48672   940889.38     -376890.82     -365649.94    
     15400   1781.4624      176.19511          48672   940877.12     -376914.43     -365706.85    
     15500   1787.0391     -362.18892          48672   941437.13     -376976.84     -365734.18    
     15600   1784.1625     -277.10901          48672   941300.9      -376978.91     -365754.35    
     15700   1779.9563      735.03653          48672   940727.37     -377008.86     -365810.76    
     15800   1777.5822     -426.13673          48672   941174.17     -377105.76     -365922.6     
     15900   1780.8922      9.8038587          48672   940977.21     -377123.39     -365919.4     
     16000   1788.8557      349.56044          48672   940972.18     -377126.61     -365872.52    
     16100   1794.3174     -664.50876          48672   941593.69     -377114.53     -365826.08    
     16200   1788.2315      331.92422          48672   941110.43     -377101.53     -365851.37    
     16300   1780.5782      243.62849          48672   941091.56     -377108.61     -365906.6     
     16400   1781.5897     -306.36836          48672   941392.22     -377129.72     -365921.35    
     16500   1791.8252      452.77405          48672   941155.05     -377211.15     -365938.38    
     16600   1788.5863     -299.50134          48672   941380.84     -377249.34     -365996.95    
     16700   1776.8816      130.49114          48672   941216.69     -377244.38     -366065.63    
     16800   1772.2444      120.70596          48672   941191.32     -377238.36     -366088.78    
     16900   1790.3238     -267.33776          48672   941391.78     -377264.19     -366000.87    
     17000   1798.8195     -119.31866          48672   941461.17     -377235.28     -365918.51    
     17100   1793.5266      167.16975          48672   941350.96     -377266.97     -365983.5     
     17200   1791.7477      200.58022          48672   941270.28     -377351.58     -366079.3     
     17300   1785.9739     -466.47829          48672   941559.67     -377359.48     -366123.53    
     17400   1783.4365      192.57703          48672   941267.2      -377372.5      -366152.51    
     17500   1772.5685      452.665            48672   941178.59     -377370.1      -366218.48    
     17600   1789.0638     -815.29342          48672   941656.2      -377539.9      -366284.51    
     17700   1783.7538      427.12841          48672   941001.18     -377528.13     -366306.14    
     17800   1791.9013      449.07862          48672   941037.57     -377484.42     -366211.18    
     17900   1787.6248     -914.98319          48672   941868.37     -377403.57     -366157.23    
     18000   1787.4421      395.44511          48672   941315.53     -377453.58     -366208.39    
     18100   1785.2608      536.00323          48672   941138.24     -377536.72     -366305.25    
     18200   1791.6907     -996.59174          48672   941927.87     -377611.59     -366339.66    
     18300   1788.466       134.66767          48672   941392.04     -377620.07     -366368.43    
     18400   1782.6825      780.71009          48672   941096.75     -377605.32     -366390.07    
     18500   1782.8561     -1057.5584          48672   941915.17     -377687.04     -366470.7     
     18600   1781.2771      782.28786          48672   941121.52     -377711.85     -366505.44    
     18700   1791.3094      437.65602          48672   941199.02     -377737.62     -366468.1     
     18800   1791.661      -747.06411          48672   942012.09     -377643.49     -366371.76    
     18900   1788.0743      250.06691          48672   941407.85     -377591.72     -366342.55    
     19000   1793.8893      361.54185          48672   941207.23     -377693.73     -366407.98    
     19100   1796.1522     -877.77757          48672   941780.22     -377772.25     -366472.26    
     19200   1784.0237      75.012061          48672   941232.45     -377756.5      -366532.81    
     19300   1785.4662      725.74548          48672   940882.13     -377837.56     -366604.8     
     19400   1770.9194     -945.78532          48672   941754.29     -377789.86     -366648.61    
     19500   1794.6139      382.17612          48672   941333.5      -377900.49     -366610.18    
     19600   1785.4416      207.63605          48672   941317.44     -377813.94     -366581.33    
     19700   1793.7312     -783.57768          48672   941931.07     -377855.48     -366570.72    
     19800   1786.0747      5.7671883          48672   941571.96     -377859.51     -366622.92    
     19900   1788.0792      315.96801          48672   941217.4      -377961.47     -366712.27    
     20000   1782.1768      139.40291          48672   941524.91     -377976.29     -366764.22    
     20100   1783.5567     -339.25109          48672   941715.98     -377982.93     -366762.19    
     20200   1797.2291      418.77986          48672   941304.04     -378023.27     -366716.51    
     20300   1786.7823      51.427423          48672   941706.28     -377897.21     -366656.17    
     20400   1791.2128     -722.93455          48672   942157.52     -377948.9      -366679.99    
     20500   1791.8451      751.2004           48672   941256.02     -378066.83     -366793.94    
     20600   1781.0256      272.45063          48672   941433.11     -378049.16     -366844.34    
     20700   1781.4358     -1195.4431          48672   942184.78     -378074.34     -366866.94    
     20800   1788.369       980.96269          48672   941090.85     -378109.57     -366858.54    
     20900   1793.1204      465.02209          48672   941238.6      -378167.42     -366886.5     
     21000   1790.3625     -1088.1383          48672   942192.34     -378234.68     -366971.11    
     21100   1783.9043      619.32846          48672   941181.18     -378220.9      -366997.97    
     21200   1788.0087      777.60861          48672   941211.48     -378198.77     -366950.01    
     21300   1777.686      -1581.2809          48672   942541.62     -378050.68     -366866.87    
     21400   1801.7231      576.27556          48672   941501.6      -378168.09     -366833.05    
     21500   1789.0022      896.00755          48672   941211.16     -378235.96     -366980.95    
     21600   1791.0409     -1236.9244          48672   942320.21     -378287.81     -367019.97    
     21700   1789.1271      433.63057          48672   941403.89     -378292.78     -367036.99    
     21800   1786.1327      928.32428          48672   941067.37     -378296.86     -367059.9     
     21900   1781.9908     -1345.0796          48672   942375.6      -378288.31     -367077.41    
     22000   1783.2584      375.14319          48672   941528.45     -378321.26     -367102.39    
     22100   1784.0357      1086.9954          48672   941053.13     -378372.72     -367148.96    
     22200   1784.9676     -976.83635          48672   942246.12     -378401.07     -367171.45    
     22300   1782.9321     -233.31098          48672   941783.26     -378405.29     -367188.47    
     22400   1787.9571      1316.9277          48672   941113.68     -378413.21     -367164.78    
     22500   1796.904      -919.73733          48672   942357.29     -378417.64     -367112.92    
     22600   1796.6464     -549.66614          48672   942058.26     -378391.17     -367088.07    
     22700   1781.5061      1288.9526          48672   941067.17     -378395.34     -367187.5     
     22800   1784.0765     -822.28933          48672   942247.78     -378473.03     -367249.01    
     22900   1787.2058     -612.0173           48672   942068.62     -378493.65     -367249.95    
     23000   1785.0393      1322.2925          48672   941183.93     -378445.85     -367215.78    
     23100   1785.1785     -917.71128          48672   942220.49     -378452.15     -367221.2     
     23200   1768.7348     -426.3325           48672   941884.34     -378452.64     -367325.14    
     23300   1788.4707      967.94343          48672   941183.75     -378624.36     -367372.69    
     23400   1773.9283     -672.06838          48672   942082.81     -378535.42     -367375.25    
     23500   1788.6897     -6.7253747          48672   941939.53     -378576.58     -367323.54    
     23600   1791.9807      622.87756          48672   941645.94     -378524.5      -367250.76    
     23700   1796.7535     -670.51754          48672   942250.18     -378578.16     -367274.39    
     23800   1786.4826      6.1979637          48672   941943.24     -378640.27     -367401.12    
     23900   1788.4272      511.37432          48672   941653.21     -378707.99     -367456.6     
     24000   1788.6102     -461.82971          48672   941940.82     -378756.54     -367504       
     24100   1783.6582      371.23282          48672   941691.05     -378785.8      -367564.41    
     24200   1776.9943     -141.65924          48672   941814.01     -378789.86     -367610.4     
     24300   1779.8881      9.3951645          48672   941882.71     -378812.37     -367614.7     
     24400   1794.226       49.303636          48672   941891.15     -378843.28     -367555.4     
     24500   1787.8905     -13.272314          48672   941979.93     -378772.27     -367524.25    
     24600   1786.5343     -430.14347          48672   942150.45     -378829.23     -367589.75    
     24700   1785.0759      414.52745          48672   941817.32     -378898.38     -367668.07    
     24800   1776.6657      205.22142          48672   941761.88     -378865.02     -367687.63    
     24900   1792.6224     -261.36901          48672   941972.59     -378945.32     -367667.54    
     25000   1788.56       -46.167869          48672   941921.21     -378927.72     -367675.49    
     25100   1780.0093      233.70821          48672   941965.07     -378952.53     -367754.1     
     25200   1775.7641     -48.095174          48672   942042.04     -378971.48     -367799.75    
     25300   1784.7026      352.93473          48672   941766.07     -379008.23     -367780.27    
     25400   1783.0546     -176.1911           48672   942106.01     -378922.3      -367704.71    
     25500   1797.099      -155.52292          48672   942269        -378952.46     -367646.51    
     25600   1798.353      -6.5015008          48672   942009.33     -379027.95     -367714.11    
     25700   1789.4989      436.9569           48672   941762.28     -379069.73     -367811.6     
     25800   1779.8846     -56.079526          48672   942087.57     -379040.01     -367842.36    
     25900   1782.3479     -602.15401          48672   942219.12     -379093.02     -367879.88    
     26000   1790.402       549.40233          48672   941698.55     -379141.5      -367877.69    
     26100   1794.4334     -180.16763          48672   942152.67     -379124.06     -367834.89    
     26200   1793.7603     -410.01506          48672   942301.6      -379084.56     -367799.62    
     26300   1792.5345      518.42326          48672   941754.07     -379111.55     -367834.32    
     26400   1781.0529     -254.8605           48672   942111.85     -379146.35     -367941.35    
     26500   1776.3971     -426.29466          48672   942186.02     -379146.16     -367970.45    
     26600   1783.7584      807.64186          48672   941570.63     -379181.74     -367959.73    
     26700   1783.4162     -104.84556          48672   942129.53     -379190.38     -367970.52    
     26800   1775.1366     -875.45806          48672   942543.8      -379215.9      -368048.13    
     26900   1785.4882      863.85715          48672   941456.31     -379320.35     -368087.45    
     27000   1784.2534      371.72056          48672   941858.98     -379289.72     -368064.59    
     27100   1791.4388     -1387.6046          48672   942832.01     -379226.47     -367956.13    
     27200   1797.2713      1111.3749          48672   941516        -379253.94     -367946.91    
     27300   1784.9504      682.08656          48672   941763.75     -379239.92     -368010.41    
     27400   1776.8057     -1488.0078          48672   942964.59     -379231.98     -368053.7     
     27500   1787.7313      937.86409          48672   941648.43     -379334.72     -368087.71    
     27600   1780.0749      625.53943          48672   941734.13     -379308.32     -368109.48    
     27700   1773.2447     -1648.7806          48672   942805.04     -379331.69     -368175.82    
     27800   1772.2145      1035.1436          48672   941479.59     -379387.83     -368238.44    
     27900   1772.9096      691.65131          48672   941794.64     -379334.24     -368180.48    
     28000   1783.2972     -1835.3553          48672   943066.04     -379313.3      -368094.18    
     28100   1793.01        1067.9963          48672   941566.37     -379368.8      -368088.58    
     28200   1784.863       620.56081          48672   941913.29     -379383.61     -368154.64    
     28300   1775.448      -1828.6546          48672   942999.35     -379375.12     -368205.38    
     28400   1788.1823      1309.3263          48672   941456.9      -379446.89     -368197.04    
     28500   1785.7755      207.4133           48672   942068.2      -379420.79     -368186.08    
     28600   1784.3909     -1425.6637          48672   942911.67     -379421.08     -368195.08    
     28700   1789.0275      1189.2832          48672   941683.8      -379471.08     -368215.91    
     28800   1784.8003      249.94468          48672   942105.66     -379463.61     -368235.03    
     28900   1787.6823     -996.53345          48672   942752.8      -379481.85     -368235.15    
     29000   1787.2036      884.48136          48672   941918.24     -379470.21     -368226.52    
     29100   1785.4682     -112.04001          48672   942280.14     -379508.27     -368275.5     
     29200   1782.9567     -617.652            48672   942548.77     -379578.45     -368361.47    
     29300   1774.8093      404.26959          48672   941982.42     -379548.31     -368382.59    
     29400   1776.9981      101.4474           48672   942170.31     -379550.63     -368371.14    
     29500   1788.8769     -149.73305          48672   942486.79     -379583.09     -368328.87    
     29600   1798.4846      186.98161          48672   942373.35     -379527.95     -368213.29    
     29700   1801.6412      69.187914          48672   942489.27     -379562.09     -368227.56    
     29800   1797.5376     -314.83338          48672   942599.36     -379631.42     -368322.72    
     29900   1794.2197      508.36384          48672   942267.54     -379688.04     -368400.21    
     30000   1781.6622     -179.16493          48672   942454.94     -379684.84     -368476.01    
     30100   1787.0736     -12.613783          48672   942429.94     -379753.36     -368510.48    
     30200   1778.9971      63.108604          48672   942345.04     -379685.28     -368493.22    
     30300   1793.5899      272.95992          48672   942467.32     -379693.78     -368409.91    
     30400   1802.148      -427.11657          48672   942723.14     -379700.71     -368362.99    
     30500   1798.2266      35.48086           48672   942513.9      -379768.4      -368455.36    
     30600   1795.3788      304.54852          48672   942487.41     -379810.99     -368515.87    
     30700   1786.397      -279.5095           48672   942645.49     -379801.63     -368563.01    
     30800   1786.0425      353.29226          48672   942343.85     -379851.44     -368615.05    
     30900   1781.2847     -24.045403          48672   942479.65     -379885.17     -368678.71    
     31000   1780.0465     -383.22483          48672   942639.22     -379894.94     -368696.28    
     31100   1779.7734      162.84106          48672   942401.17     -379830.91     -368633.97    
     31200   1792.8227      72.357923          48672   942577.84     -379820.26     -368541.22    
     31300   1796.0248     -346.06385          48672   942864.39     -379858.17     -368558.98    
     31400   1790.1633      94.689074          48672   942531.01     -379915.37     -368653.05    
     31500   1790.5065      585.93658          48672   942306.73     -379953.96     -368689.49    
     31600   1781.4482     -283.85927          48672   942762.15     -379913.02     -368705.54    
     31700   1792.7391     -275.68777          48672   942649.8      -380014.04     -368735.52    
     31800   1780.1585      611.98003          48672   942255.71     -380008.14     -368808.77    
     31900   1771.4086     -490.51289          48672   942743.33     -380026.24     -368881.92    
     32000   1790.8691     -173.80872          48672   942613.78     -380139.3      -368872.55    
     32100   1784.0175      489.72115          48672   942339.83     -379968.61     -368744.96    
     32200   1793.4783     -368.62453          48672   942761.84     -379999.84     -368716.67    
     32300   1786.3912      164.14949          48672   942608.12     -380023.25     -368784.67    
     32400   1781.1284      306.33007          48672   942486.82     -380074.39     -368868.92    
     32500   1783.897      -374.30239          48672   942803.17     -380130.63     -368907.74    
     32600   1788.765      -133.85598          48672   942719.46     -380170.86     -368917.34    
     32700   1791.06        417.20046          48672   942481.77     -380235.57     -368967.62    
     32800   1788.6574     -419.87575          48672   942722.6      -380318.76     -369065.92    
     32900   1782.4668      245.27256          48672   942551.62     -380269.42     -369055.53    
     33000   1781.2758      65.448209          48672   942714.44     -380201.81     -368995.41    
     33100   1783.8954     -348.65981          48672   942913.28     -380192.65     -368969.77    
     33200   1781.2223      327.40783          48672   942559.61     -380196.89     -368990.83    
     33300   1780.858      -83.545196          48672   942768.23     -380237.84     -369034.07    
     33400   1787.8229     -86.140785          48672   942850.02     -380324.19     -369076.6     
     33500   1777.2856      244.73431          48672   942578.13     -380366.44     -369185.14    
     33600   1786.3509     -257.20153          48672   942697.13     -380476.11     -369237.78    
     33700   1786.034       132.73237          48672   942708.78     -380421.46     -369185.13    
     33800   1790.204      -120.56753          48672   942807.22     -380391.84     -369129.27    
     33900   1794.9915      51.042231          48672   942763.35     -380399.87     -369107.19    
     34000   1784.856       283.38138          48672   942677.32     -380369.91     -369140.99    
     34100   1780.8451     -253.96197          48672   942861.05     -380466.22     -369262.53    
     34200   1781.4528      165.00383          48672   942675.14     -380485.06     -369277.54    
     34300   1784.3249      17.309027          48672   942799.2      -380457.65     -369232.07    
     34400   1788.5619     -34.613286          48672   942923.52     -380440.86     -369188.62    
     34500   1792.8328     -102.32893          48672   942788.33     -380489.55     -369210.44    
     34600   1776.8172      372.48066          48672   942598.82     -380511.91     -369333.56    
     34700   1786.8384     -67.701973          48672   942823        -380584.09     -369342.7     
     34800   1781.8624     -144.56445          48672   942887.43     -380531.8      -369321.71    
     34900   1785.5671      263.50643          48672   942671.12     -380541.65     -369308.26    
     35000   1788.4182      45.321569          48672   942781.8      -380625.54     -369374.21    
     35100   1778.4001     -352.49191          48672   942824.32     -380642.9      -369454.59    
     35200   1789.5487      713.74689          48672   942450.6      -380694.73     -369436.29    
     35300   1787.139      -371.79791          48672   943096.23     -380627.39     -369384.1     
     35400   1800.6424     -483.78516          48672   943158.57     -380638.93     -369310.69    
     35500   1792.2033      1209.7405          48672   942426.98     -380529.97     -369254.83    
     35600   1791.347      -1015.7176          48672   943454.33     -380605.61     -369335.85    
     35700   1788.5702     -366.45435          48672   943105.87     -380688.77     -369436.48    
     35800   1777.6681      1918.6037          48672   941903.1      -380700.55     -369516.85    
     35900   1778.2809     -1632.4809          48672   943528.13     -380757.21     -369569.65    
     36000   1784.1776     -476.92829          48672   943082.73     -380803.55     -369578.9     
     36100   1789.0845      2159.5847          48672   941804.09     -380785.07     -369529.55    
     36200   1787.0854     -1885.1702          48672   943846.46     -380702.16     -369459.21    
     36300   1798.1038     -404.88845          48672   943188.5      -380742.3      -369430.04    
     36400   1787.5093      2035.7522          48672   941878.75     -380800.25     -369554.63    
     36500   1801.847      -1358.8253          48672   943545.69     -380941.27     -369605.45    
     36600   1796.2849     -106.38216          48672   942995.34     -380942.87     -369642.05    
     36700   1788.9048      1640.3845          48672   942048.51     -380909        -369654.61    
     36800   1778.9604     -1113.5018          48672   943493.76     -380861.22     -369669.39    
     36900   1775.2379     -442.60929          48672   943090.17     -380877.48     -369709.06    
     37000   1784.9678      1534.1663          48672   942200.03     -380959.96     -369730.33    
     37100   1783.5733     -1018.7533          48672   943449.98     -380963.01     -369742.16    
     37200   1786.8482     -27.27675           48672   943041.03     -380939.52     -369698.07    
     37300   1793.8837      962.56931          48672   942547.85     -380942.64     -369656.92    
     37400   1778.9587     -992.259            48672   943468.48     -380924.49     -369732.67    
     37500   1779.7698      183.46598          48672   942855.57     -381001.51     -369804.58    
     37600   1778.3042      587.92352          48672   942671.2      -381008.53     -369820.83    
     37700   1783.6427     -951.86751          48672   943362.99     -381035.49     -369814.2     
     37800   1796.6273      512.47065          48672   942750.99     -381082.37     -369779.39    
     37900   1793.6992      199.09625          48672   942932.93     -381010.69     -369726.14    
     38000   1797.3439     -814.72285          48672   943505.32     -381045.55     -369738.06    
     38100   1786.6751      545.00053          48672   942767.25     -381079.87     -369839.5     
     38200   1777.4288      239.77678          48672   942788.16     -381081.52     -369899.33    
     38300   1786.1205     -562.2263           48672   943199        -381154.72     -369917.85    
     38400   1793.4951      368.95033          48672   942803.61     -381190.64     -369907.37    
     38500   1791.7942      326.86483          48672   942900.47     -381171.8      -369899.22    
     38600   1786.2813     -528.95451          48672   943245.64     -381162.62     -369924.74    
     38700   1778.045       287.64275          48672   942817.76     -381151.93     -369965.86    
     38800   1772.7053      102.3132           48672   942860.33     -381161.93     -370009.45    
     38900   1776.557      -411.45775          48672   943108.6      -381209.42     -370032.71    
     39000   1791.2484      415.91339          48672   942769.08     -381246.36     -369977.22    
     39100   1793.4857      110.17058          48672   942931.4      -381180.28     -369897.07    
     39200   1783.8149     -449.69034          48672   943283.57     -381125.05     -369902.68    
     39300   1789.7807      346.60421          48672   942844.17     -381231.5      -369971.6     
     39400   1771.9684      24.876844          48672   942911.45     -381201.84     -370053.99    
     39500   1778.3651     -376.7365           48672   943147.27     -381230.77     -370042.69    
     39600   1783.7008      306.01775          48672   942833.2      -381216.08     -369994.43    
     39700   1788.6218      132.52642          48672   942966.25     -381185.7      -369933.09    
     39800   1795.92       -342.86591          48672   943132.41     -381208.55     -369910.02    
     39900   1784.566       243.30612          48672   942906.39     -381253.37     -370026.27    
     40000   1778.6824     -102.5571           48672   943000.98     -381266.91     -370076.83    
     40100   1779.9744      121.70765          48672   942938.8      -381242.86     -370044.64    
     40200   1791.0357      68.010663          48672   943003.68     -381247.86     -369980.06    
     40300   1797.7612      28.29565           48672   943062.8      -381258.03     -369947.91    
     40400   1791.7706      19.877567          48672   942966.71     -381290.57     -370018.15    
     40500   1785.5716      19.593379          48672   942881        -381348.9      -370115.48    
     40600   1779.6138      67.491472          48672   942866.2      -381296.49     -370100.54    
     40700   1794.4615     -67.73542           48672   943033.5      -381322.23     -370032.88    
     40800   1791.0772     -46.540676          48672   942989.36     -381264.11     -369996.05    
     40900   1790.9677      288.74258          48672   942800.61     -381273.1      -370005.72    
     41000   1791.3064     -282.57773          48672   943078.76     -381319.41     -370049.9     
     41100   1784.7074      89.913969          48672   942975.67     -381303.95     -370075.97    
     41200   1789.528       61.699605          48672   942952.6      -381341.26     -370082.95    
     41300   1784.1758     -347.54684          48672   943140.09     -381330.77     -370106.13    
     41400   1779.6419      97.520269          48672   942942.04     -381345.51     -370149.39    
     41500   1784.1965      297.8593           48672   942943.37     -381421.2      -370196.42    
     41600   1776.4533     -316.54884          48672   943261.32     -381405.9      -370229.84    
     41700   1771.2881      116.45894          48672   942987.81     -381309.62     -370166.06    
     41800   1791.0063      561.88631          48672   942829.26     -381348.16     -370080.54    
     41900   1795.4115     -727.15135          48672   943381.08     -381375.64     -370080.31    
     42000   1780.2548      308.79305          48672   942908.36     -381353.84     -370153.87    
     42100   1778.6682      274.52465          48672   942886.54     -381399.54     -370209.54    
     42200   1778.6375     -1125.9881          48672   943455.02     -381395.37     -370205.57    
     42300   1777.0364      812.33814          48672   942579.06     -381366.68     -370186.95    
     42400   1785.0615     -12.385132          48672   942990.57     -381383.85     -370153.64    
     42500   1781.1472     -1204.5099          48672   943596.67     -381349.16     -370143.57    
     42600   1788.6163      1355.4536          48672   942452.86     -381400.86     -370148.28    
     42700   1782.3342     -245.40073          48672   943102.5      -381414.48     -370201.43    
     42800   1783.0839     -1039.3197          48672   943591.86     -381474.46     -370256.69    
     42900   1784.8732      1423.3307          48672   942310.86     -381501.06     -370272.03    
     43000   1787.1592     -362.71703          48672   943223.77     -381448.71     -370205.3     
     43100   1793.3984     -1238.463           48672   943765.44     -381398.12     -370115.45    
     43200   1784.7534      1513.4886          48672   942376.96     -381374.33     -370146.05    
     43300   1773.3634     -519.48443          48672   943346.02     -381372.29     -370215.67    
     43400   1782.4922     -1043.1123          48672   943612.15     -381450.49     -370236.44    
     43500   1794.4768      1586.4114          48672   942287.9      -381537.92     -370248.47    
     43600   1786.1129     -649.36525          48672   943385.12     -381500.31     -370263.48    
     43700   1788.5498     -867.11614          48672   943451.02     -381534.05     -370281.89    
     43800   1783.1561      1700.0552          48672   942264.74     -381531.3      -370313.07    
     43900   1789.7558     -974.77602          48672   943539.36     -381588.77     -370329.03    
     44000   1792.8758     -573.92536          48672   943337.37     -381586.95     -370307.57    
     44100   1788.1203      1718.2559          48672   942235.42     -381500.17     -370250.71    
     44200   1792.9838     -1233.5812          48672   943584.2      -381479.89     -370199.83    
     44300   1786.7392     -438.63032          48672   943249.96     -381467.68     -370226.91    
     44400   1784.5846      1317.2048          48672   942387.67     -381571.89     -370344.68    
     44500   1785.3092     -902.74382          48672   943458.61     -381595.89     -370364.11    
     44600   1783.1691     -62.715135          48672   943095.21     -381564.02     -370345.71    
     44700   1796.651       923.91812          48672   942656.43     -381583.54     -370280.41    
     44800   1790.2095     -969.4806           48672   943625.71     -381493.92     -370231.32    
     44900   1794.1162      2.2412748          48672   943106.5      -381504.39     -370217.21    
     45000   1788.4298      947.44412          48672   942674.88     -381564.74     -370313.33    
     45100   1783.7411     -965.914            48672   943542.82     -381603.27     -370381.36    
     45200   1771.482       142.84741          48672   943025.98     -381526.55     -370381.76    
     45300   1784.1863      910.86775          48672   942762.04     -381553.04     -370328.33    
     45400   1797.1457     -950.76119          48672   943633.31     -381569.91     -370263.67    
     45500   1791.8262      366.06886          48672   943078.87     -381516.45     -370243.67    
     45600   1789.2853      392.08855          48672   942885.75     -381606.26     -370349.47    
     45700   1780.4129     -728.55048          48672   943349.39     -381615.48     -370414.51    
     45800   1793.7455      329.12653          48672   942940.54     -381702.99     -370418.14    
     45900   1783.8751      90.89268           48672   943038.78     -381586.76     -370364.01    
     46000   1780.3376     -282.69156          48672   943229.76     -381487.9      -370287.41    
     46100   1788.8606      192.36626          48672   943052.66     -381540.5      -370286.38    
     46200   1793.0885     -96.955925          48672   943184.68     -381647.33     -370366.61    
     46300   1779.2523     -14.465203          48672   943134.7      -381592.33     -370398.66    
     46400   1780.5341      229.79693          48672   942990.43     -381592.42     -370390.69    
     46500   1780.6446     -173.97488          48672   943221.36     -381579.02     -370376.59    
     46600   1789.7507      79.18894           48672   943132.68     -381608.76     -370349.05    
     46700   1786.0125      277.80039          48672   943043.37     -381587.17     -370350.97    
     46800   1775.6567     -392.4065           48672   943276.7      -381586.82     -370415.78    
     46900   1781.647       410.56909          48672   942947.3      -381678.24     -370469.51    
     47000   1782.8742     -51.648226          48672   943062.95     -381698.05     -370481.59    
     47100   1792.2658     -190.85095          48672   943240.48     -381647.56     -370372.02    
     47200   1787.6813      182.14531          48672   943093.98     -381572.51     -370325.81    
     47300   1794.9742      181.95665          48672   943063.72     -381649.42     -370356.84    
     47400   1779.2749     -178.94063          48672   943202.39     -381632.9      -370439.09    
     47500   1778.7398      40.697535          48672   943056.18     -381659.65     -370469.21    
     47600   1787.0896      265.47018          48672   943003.21     -381690.4      -370447.42    
     47700   1788.4043     -236.297            48672   943221.05     -381670.63     -370419.39    
     47800   1787.9213     -96.221471          48672   943149.32     -381656.01     -370407.81    
     47900   1780.4939      276.71418          48672   942976.09     -381605.95     -370404.47    
     48000   1785.8314     -1.4743389          48672   943157.23     -381650.46     -370415.4     
     48100   1786.5055     -241.97132          48672   943248.12     -381658.79     -370419.49    
     48200   1784.7765      570.6742           48672   942849.01     -381649.95     -370421.53    
     48300   1790.3592      183.95018          48672   943112.33     -381690.48     -370426.93    
     48400   1786.1492     -537.62125          48672   943341.92     -381673.24     -370436.18    
     48500   1778.7376      603.2993           48672   942771.94     -381639.84     -370449.41    
     48600   1777.333      -187.928            48672   943170.46     -381629.9      -370448.31    
     48700   1784.6726     -476.98615          48672   943335.18     -381643.05     -370415.28    
     48800   1787.4634      799.95484          48672   942814.27     -381613.01     -370367.69    
     48900   1793.1082     -385.11558          48672   943303.33     -381630.26     -370349.42    
     49000   1788.3224     -392.55537          48672   943345.49     -381683.77     -370433.04    
     49100   1778.3909      757.85274          48672   942763.61     -381689.24     -370500.99    
     49200   1775.1783     -411.18677          48672   943289.01     -381660.86     -370492.82    
     49300   1780.885      -354.73463          48672   943305.52     -381627.68     -370423.74    
     49400   1798.3255      745.3259           48672   942703.15     -381678.26     -370364.59    
     49500   1793.7281     -410.61167          48672   943402.6      -381656.77     -370372.03    
     49600   1783.4055     -590.36639          48672   943381.74     -381626.27     -370406.47    
     49700   1777.9085      1272.1076          48672   942546.19     -381628.84     -370443.63    
     49800   1785.292      -879.72867          48672   943477.33     -381707.7      -370476.04    
     49900   1776.7571     -275.43657          48672   943230.62     -381667.98     -370490.01    
     50000   1784.668       1234.3161          48672   942422.99     -381673.62     -370445.88    
Loop time of 178.823 on 24 procs for 50000 steps with 48672 atoms

Performance: 48.316 ns/day, 0.497 hours/ns, 279.607 timesteps/s, 13.609 Matom-step/s
99.8% CPU use with 24 MPI tasks x no OpenMP threads

MPI task timing breakdown:
Section |  min time  |  avg time  |  max time  |%varavg| %total
---------------------------------------------------------------
Pair    | 154.62     | 156.04     | 157.29     |   6.2 | 87.26
Neigh   | 4.6376     | 4.6803     | 4.7416     |   1.1 |  2.62
Comm    | 9.5787     | 11.088     | 13.028     |  24.2 |  6.20
Output  | 0.016741   | 0.02139    | 0.12461    |  14.7 |  0.01
Modify  | 6.0164     | 6.5542     | 7.3024     |  16.0 |  3.67
Other   |            | 0.4386     |            |       |  0.25

Nlocal:           2028 ave        2068 max        2006 min
Histogram: 4 3 3 5 5 0 1 1 1 1
Nghost:        3990.17 ave        4030 max        3946 min
Histogram: 2 3 0 2 2 4 5 3 1 2
Neighs:         109003 ave      111283 max      107327 min
Histogram: 2 2 3 6 3 3 3 0 0 2

Total # of neighbors = 2616063
Ave neighs/atom = 53.748829
Neighbor list builds = 1315
Dangerous builds = 1
unfix 1

fix 1 liquid npt temp ${Thigh} ${Thigh} ${Tdamp} iso $P $P ${Pdamp}
fix 1 liquid npt temp 4285 ${Thigh} ${Tdamp} iso $P $P ${Pdamp}
fix 1 liquid npt temp 4285 4285 ${Tdamp} iso $P $P ${Pdamp}
fix 1 liquid npt temp 4285 4285 0.2 iso $P $P ${Pdamp}
fix 1 liquid npt temp 4285 4285 0.2 iso 0 $P ${Pdamp}
fix 1 liquid npt temp 4285 4285 0.2 iso 0 0 ${Pdamp}
fix 1 liquid npt temp 4285 4285 0.2 iso 0 0 2
run 250000
Per MPI rank memory allocation (min/avg/max) = 3.946 | 4.041 | 4.328 Mbytes
   Step          Temp          Press         Atoms        Volume         PotEng         TotEng    
     50000   1784.668       1234.3161          48672   942422.99     -381673.62     -370445.88    
     50100   1851.1234      928.13896          48672   943007.81     -381252.8      -369606.98    
     50200   1939.4428     -680.10218          48672   944359.39     -380572.19     -368370.73    
     50300   2050.9227     -805.8548           48672   945222.37     -379808.01     -366905.2     
     50400   2170.4513      673.06025          48672   945476.07     -378890.62     -365235.84    
     50500   2303.4413      1306.6163          48672   946274.11     -377866.35     -363374.89    
     50600   2443.4873      335.58943          48672   948081.88     -376697.21     -361324.69    
     50700   2607.4426     -567.07296          48672   950017.89     -375504.07     -359100.07    
     50800   2771.715       256.99122          48672   951374.46     -374152.59     -356715.12    
     50900   2930.4767      1610.6648          48672   952819.12     -372624.74     -354188.46    
     51000   3091.0524      1659.8144          48672   955191.56     -370995.21     -351548.72    
     51100   3243.4131      866.08177          48672   958206.73     -369228.3      -348823.27    
     51200   3397.3872      1296.75            48672   961056.23     -367420.29     -346046.58    
     51300   3524.2755      2179.6794          48672   963986.99     -365428.7      -343256.71    
     51400   3625.0442      1966.5992          48672   967670.3      -363286.23     -340480.27    
     51500   3734.9756      1359.8657          48672   971749.86     -361234.26     -337736.7     
     51600   3801.1144      2033.3508          48672   975804.25     -358954.19     -335040.54    
     51700   3888.0169      2564.535           48672   979895.03     -356876.7      -332416.33    
     51800   3996.288       3026.9481          48672   984207.58     -355034.87     -329893.34    
     51900   4111.4329      1813.0493          48672   988559.89     -353418.51     -327552.58    
     52000   4223.1524      2222.6338          48672   992365.76     -352126.52     -325557.74    
     52100   4327.4802      844.895            48672   995610.79     -351256.32     -324031.18    
     52200   4354.7678     -339.98558          48672   997815.03     -350632.02     -323235.22    
     52300   4328.165      -1376.8068          48672   998804.2      -350549.65     -323320.21    
     52400   4279.1191     -1915.0778          48672   998344.38     -350881.43     -323960.55    
     52500   4261.9253     -1187.2704          48672   996408.88     -351337.75     -324525.04    
     52600   4236.3728      1421.2085          48672   994178.38     -351464.55     -324812.6     
     52700   4263.9928      2208.3489          48672   993733.63     -351489.59     -324663.87    
     52800   4276.6759      982.27178          48672   995263.3      -351146.16     -324240.65    
     52900   4299.2802     -239.62089          48672   996933.15     -350945.74     -323898.02    
     53000   4303.279      -1050.503           48672   997476.48     -350911.84     -323838.96    
     53100   4281.9781     -511.14938          48672   996967.87     -350980.23     -324041.36    
     53200   4282.9118     -69.071491          48672   996133.59     -351244.37     -324299.63    
     53300   4275.718       59.175371          48672   995421.25     -351366.58     -324467.1     
     53400   4241.2749      940.43824          48672   995311.79     -351119.33     -324436.54    
     53500   4298.9329      209.65804          48672   995810.84     -351232.87     -324187.34    
     53600   4290.3968     -257.15429          48672   996258.22     -351040.32     -324048.49    
     53700   4288.0675      277.50328          48672   996442.77     -351049.08     -324071.9     
     53800   4298.2429     -1285.6516          48672   996533.08     -351247.73     -324206.54    
     53900   4269.8053     -319.14853          48672   995830.4      -351242.49     -324380.2     
     54000   4273.4218      1404.821           48672   995109.92     -351302.12     -324417.08    
     54100   4288.4198      34.318548          48672   995485.52     -351296.63     -324317.24    
     54200   4284.4024     -1.8451621          48672   996138.71     -351124.17     -324170.05    
     54300   4304.2374     -417.25422          48672   996744.89     -351070.89     -323991.98    
     54400   4299.6415     -454.44554          48672   996941.98     -350950.96     -323900.96    
     54500   4300.6856     -359.33068          48672   996770.7      -350995.47     -323938.91    
     54600   4262.5626      59.809073          48672   996228.81     -350937.57     -324120.85    
     54700   4272.1441      314.09468          48672   995697.65     -351144.22     -324267.22    
     54800   4281.4593      458.81498          48672   995533.91     -351264.52     -324328.92    
     54900   4277.3805      349.10959          48672   995690.53     -351235.46     -324325.52    
     55000   4277.7888      77.621741          48672   996049.38     -351108.75     -324196.24    
     55100   4300.5408      355.45686          48672   996359.96     -351124.47     -324068.82    
     55200   4281.2181     -73.789566          48672   996782.11     -351030.94     -324096.85    
     55300   4278.0589     -1291.1441          48672   996789.56     -351090.88     -324176.67    
     55400   4275.3715      115.18486          48672   995832.77     -351154.49     -324257.19    
     55500   4249.7245      1339.1761          48672   995104.17     -351092.43     -324356.48    
     55600   4283.2956      906.16025          48672   995382.3      -351230.6      -324283.45    
     55700   4292.5988     -333.50913          48672   996427.74     -351154.16     -324148.47    
     55800   4293.4434     -1519.9518          48672   997227.97     -351046.52     -324035.52    
     55900   4269.7182     -42.967081          48672   996685.06     -350892.55     -324030.81    
     56000   4297.9489      414.36072          48672   995746.94     -351138.73     -324099.38    
     56100   4294.318       647.97865          48672   995457.67     -351246.3      -324229.8     
     56200   4297.2735     -464.23018          48672   995929.36     -351322.38     -324287.28    
     56300   4280.4938     -707.59353          48672   996284.13     -351201.17     -324271.64    
     56400   4273.2951      10.202898          48672   995972.72     -351130.42     -324246.18    
     56500   4280.6952      1056.3122          48672   995585.63     -351094.1      -324163.31    
     56600   4292.4414      878.48674          48672   995905.18     -351042.94     -324038.24    
     56700   4299.5692     -545.97517          48672   996518.1      -351064.43     -324014.89    
     56800   4288.2857     -1572.6538          48672   996669.63     -351125.68     -324147.12    
     56900   4299.6136     -66.128142          48672   995985.56     -351272.58     -324222.77    
     57000   4275.862       1044.5522          48672   995373.43     -351180.23     -324279.84    
     57100   4265.4971      688.32145          48672   995669.8      -351142.31     -324307.12    
     57200   4263.4368     -656.43542          48672   996286.14     -351062.45     -324240.23    
     57300   4282.3921      114.84265          48672   996285.29     -350987.3      -324045.83    
     57400   4323.7678      161.30818          48672   996171.11     -351117.58     -323915.8     
     57500   4313.161      -411.85761          48672   996238.87     -351188.95     -324053.91    
     57600   4238.1809      147.00872          48672   995783.07     -351083.43     -324420.1     
     57700   4247.199       1222.2149          48672   995234.1      -351299.15     -324579.09    
     57800   4280.864       95.20189           48672   995404.72     -351364.41     -324432.55    
     57900   4308.2679     -281.09862          48672   996087.04     -351221.81     -324117.55    
     58000   4297.2675     -490.04472          48672   996649.28     -350982.98     -323947.93    
     58100   4316.519      -490.9902           48672   996676.74     -351087.64     -323931.47    
     58200   4279.9782      195.6198           48672   996462.91     -350946.42     -324020.13    
     58300   4306.2897     -214.58867          48672   996309.32     -351221.74     -324129.92    
     58400   4263.5291      770.42973          48672   995949.88     -351105.96     -324283.15    
     58500   4255.6245      532.21089          48672   995690.71     -351090.02     -324316.95    
     58600   4288.9876     -18.864819          48672   995717.91     -351233.72     -324250.75    
     58700   4315.3589     -575.02678          48672   995991.62     -351329.38     -324180.5     
     58800   4291.3271     -527.76011          48672   996230.4      -351209.38     -324211.7     
     58900   4281.7106     -190.13438          48672   996152.4      -351204.58     -324267.39    
     59000   4269.5815      548.68017          48672   995972.71     -351086.62     -324225.74    
     59100   4294.2269      842.53062          48672   996071.88     -351136.42     -324120.49    
     59200   4311.2173     -973.06809          48672   996713.2      -351213.03     -324090.22    
     59300   4269.4146     -432.37571          48672   996793.85     -351024        -324164.17    
     59400   4282.6899     -729.06664          48672   996188.12     -351169.57     -324226.23    
     59500   4287.1762      1048.8584          48672   995240.08     -351239.41     -324267.84    
     59600   4281.252       779.87338          48672   994994.8      -351311.39     -324377.09    
     59700   4263.7347      337.55299          48672   995451.82     -351315.43     -324491.33    
     59800   4290.9861     -1259.3466          48672   996052.33     -351379.1      -324383.56    
     59900   4287.2286      109.47399          48672   995975.63     -351109.07     -324137.17    
     60000   4323.8264      233.67871          48672   995901.76     -351085.13     -323882.98    
     60100   4308.5266      390.57483          48672   996149.01     -351016.08     -323910.19    
     60200   4293.164      -1051.7424          48672   996694.44     -351184.25     -324175.01    
     60300   4242.6477     -860.14539          48672   996320.4      -351114.13     -324422.7     
     60400   4277.8848      1242.6111          48672   994890.3      -351363.32     -324450.2     
     60500   4321.5741      810.40231          48672   994479.54     -351524.87     -324336.89    
     60600   4281.3946      540.64527          48672   995554.87     -351225.7      -324290.51    
     60700   4279.3752     -1607.1475          48672   997017.86     -351190.7      -324268.21    
     60800   4290.8949     -1421.6361          48672   996940.79     -351165.38     -324170.42    
     60900   4298.7367      725.81725          48672   995581.28     -351098.72     -324054.42    
     61000   4300.1037      2078.3663          48672   995107.32     -351072.59     -324019.69    
     61100   4279.8241     -474.81862          48672   996334.3      -351096.69     -324171.38    
     61200   4246.1779     -1576.8586          48672   997373.97     -351023.01     -324309.37    
     61300   4262.6777     -1256.427           48672   996724.19     -351053.91     -324236.46    
     61400   4302.9383      1900.9587          48672   995042.39     -351078.2      -324007.47    
     61500   4329.9223      2096.0943          48672   994981.98     -351191.77     -323951.28    
     61600   4280.3167     -1166.7646          48672   996807.86     -351120.43     -324192.01    
     61700   4256.5735     -2836.2155          48672   997571.52     -351155.96     -324376.92    
     61800   4290.3809     -64.160959          48672   995778.75     -351315.99     -324324.26    
     61900   4296.0828      3359.8211          48672   994162.2      -351180.31     -324152.7     
     62000   4302.5625      1376.6086          48672   995193.8      -351179.78     -324111.41    
     62100   4265.5089     -1673.3122          48672   997227.8      -351027.44     -324192.18    
     62200   4284.6327     -2556.8249          48672   997524.18     -351115.33     -324159.76    
     62300   4285.1         498.07541          48672   995749.25     -351069.25     -324110.74    
     62400   4291.1917      2204.1066          48672   994633.93     -351105.52     -324108.69    
     62500   4263.6702      1532.3291          48672   995582.46     -351034.03     -324210.34    
     62600   4270.9973     -1897.7831          48672   997225.5      -351114.28     -324244.49    
     62700   4278.8995     -1240.804           48672   997092.9      -351122.01     -324202.51    
     62800   4300.9099      589.41723          48672   995858.21     -351194.69     -324136.71    
     62900   4286.6759      1728.3143          48672   995367.63     -351134.82     -324166.4     
     63000   4272.6379     -307.65963          48672   995992.02     -351165.01     -324284.9     
     63100   4276.9101     -514.085            48672   996336.21     -351244.28     -324337.29    
     63200   4281.0624     -143.11837          48672   996022.1      -351182.01     -324248.9     
     63300   4300.7757      848.77902          48672   995594.76     -351163.57     -324106.44    
     63400   4331.8643      293.92026          48672   995803.02     -351337.17     -324084.46    
     63500   4312.3486     -1204.6294          48672   996367.15     -351328.15     -324198.21    
     63600   4267.4705     -770.1666           48672   996189.41     -351212.3      -324364.71    
     63700   4257.863       764.59248          48672   995410.21     -351157.9      -324370.75    
     63800   4292.6709      1056.9166          48672   995190.43     -351217.75     -324211.61    
     63900   4277.5325      198.98264          48672   996154.38     -350966.99     -324056.09    
     64000   4270.2417     -1211.5358          48672   997202.97     -350873.8      -324008.76    
     64100   4277.298      -599.81732          48672   997019.95     -350927.55     -324018.13    
     64200   4262.9754      1003.9848          48672   996096.9      -350957.09     -324137.77    
     64300   4271.3313      872.28447          48672   995676.76     -351079.25     -324207.36    
     64400   4282.1597      643.02416          48672   995988.61     -351144.49     -324204.48    
     64500   4273.5111     -355.9756           48672   996563.93     -351092.79     -324207.18    
     64600   4274.643      -591.81649          48672   996649.08     -351044.84     -324152.12    
     64700   4300.336       501.21553          48672   996232.09     -351072.35     -324017.99    
     64800   4290.1069      647.44803          48672   996009.23     -350983.01     -323993       
     64900   4286.2739     -598.66226          48672   996339.47     -351075.69     -324109.79    
     65000   4272.5479     -575.646            48672   996329.08     -351145.6      -324266.06    
     65100   4261.5468      622.7008           48672   995732.5      -351142.74     -324332.41    
     65200   4277.2987      762.96979          48672   995383.58     -351220.87     -324311.44    
     65300   4320.8152      511.16478          48672   995640.47     -351457.95     -324274.75    
     65400   4275.2921     -1402.3963          48672   996517.46     -351175.79     -324278.99    
     65500   4282.2443     -601.84093          48672   996547.48     -351068.23     -324127.68    
     65600   4321.7125     -47.16438           48672   996226.07     -351109.67     -323920.83    
     65700   4313.322      -84.706007          48672   996010.51     -351118.54     -323982.48    
     65800   4295.1066     -164.78343          48672   996046.11     -351201.72     -324180.25    
     65900   4265.9071     -416.02502          48672   996362.55     -351165.69     -324327.93    
     66000   4269.0018     -679.6602           48672   996126.09     -351204.64     -324347.41    
     66100   4264.9585      1180.2958          48672   995299.97     -351097.93     -324266.13    
     66200   4300.5436      1538.2424          48672   995102.79     -351210.89     -324155.22    
     66300   4313.4744     -517.27918          48672   996090.61     -351320.98     -324183.96    
     66400   4290.8127     -1856.1303          48672   996962.18     -351238.73     -324244.28    
     66500   4284.3847     -473.09278          48672   996538.31     -351185.45     -324231.44    
     66600   4279.3311      760.65841          48672   995632.84     -351104.64     -324182.43    
     66700   4282.6743      1532.0363          48672   995338.02     -351087.02     -324143.77    
     66800   4290.8998     -268.24428          48672   996374.65     -351085.01     -324090.02    
     66900   4288.2435     -1204.6324          48672   997232.5      -351085.78     -324107.5     
     67000   4274.1536     -568.1308           48672   996784.11     -351044.86     -324155.22    
     67100   4305.6902      154.01739          48672   995585.02     -351248.86     -324160.82    
     67200   4291.4102      1361.5396          48672   995137.43     -351193.9      -324195.69    
     67300   4294.2144     -953.86625          48672   996095.08     -351281.12     -324265.27    
     67400   4276.944      -1342.265           48672   996667.08     -351204.67     -324297.47    
     67500   4289.0758      29.601878          48672   996099.9      -351228.16     -324244.64    
     67600   4302.6949      1658.5763          48672   995243.82     -351208.98     -324139.78    
     67700   4283.8176      1450.8006          48672   995248.01     -351168.15     -324217.71    
     67800   4273.4661     -703.15152          48672   996230.54     -351227.64     -324342.32    
     67900   4273.8475     -1066.2275          48672   996690.75     -351221.16     -324333.44    
     68000   4291.3526     -235.25424          48672   996129.82     -351183.35     -324185.51    
     68100   4312.1909      1263.861           48672   995627.82     -351127.16     -323998.21    
     68200   4307.8867      47.17923           48672   996300.4      -351033.15     -323931.29    
     68300   4289.0943     -1249.5828          48672   997371.19     -350953        -323969.36    
     68400   4286.2166     -1318.3077          48672   997463.92     -350929.01     -323963.48    
     68500   4292.035       102.05717          48672   996210.39     -351020.34     -324018.2     
     68600   4306.3534      1347.4881          48672   995072.43     -351244.03     -324151.81    
     68700   4268.3218      720.92489          48672   995177.86     -351217.73     -324364.77    
     68800   4280.7684     -581.83819          48672   996001.36     -351324.13     -324392.87    
     68900   4286.0378     -648.75174          48672   996591.92     -351192.4      -324227.99    
     69000   4269.1851      121.49565          48672   996576        -350913.27     -324054.89    
     69100   4303.7457     -217.36296          48672   996337.95     -350976.33     -323900.51    
     69200   4288.4044      1153.2044          48672   996213.68     -350910.16     -323930.87    
     69300   4286.3221     -1106.3573          48672   996859.17     -351068.37     -324102.17    
     69400   4247.0226     -421.81442          48672   996560.17     -351047.31     -324328.35    
     69500   4281.5127      168.87096          48672   995315.8      -351280.93     -324344.99    
     69600   4288.1227      2329.2207          48672   994712.13     -351151.25     -324173.72    
     69700   4304.7156      59.160574          48672   996077.81     -351075.35     -323993.44    
     69800   4297.2763     -1728.0453          48672   997876.86     -350919.17     -323884.06    
     69900   4283.5635     -1862.0531          48672   998010.53     -350828.28     -323879.43    
     70000   4316.888      -60.879336          48672   996130.13     -351190.93     -324032.43    
     70100   4265.9222      2219.4621          48672   994615.81     -351196.06     -324358.21    
     70200   4241.1674      992.06545          48672   995051.23     -351271.57     -324589.45    
     70300   4274.3537     -1158.6785          48672   996102.65     -351409.31     -324518.41    
     70400   4276.223      -609.92368          48672   996338.94     -351150.58     -324247.92    
     70500   4314.1888      558.8491           48672   996067.87     -351048.59     -323907.08    
     70600   4319.5558      120.6964           48672   996268.85     -350987.79     -323812.51    
     70700   4310.1698     -1324.6458          48672   996698.9      -351137.68     -324021.45    
     70800   4259.5363     -712.25759          48672   996408.9      -351122.58     -324324.9     
     70900   4283.2363     -68.173681          48672   995637.75     -351381.9      -324435.11    
     71000   4270.1609      607.51929          48672   995192.39     -351246.17     -324381.65    
     71100   4290.6399      869.99978          48672   995492.29     -351199.63     -324206.27    
     71200   4317.4762     -654.27118          48672   996497.64     -351215.91     -324053.71    
     71300   4271.4489     -756.25716          48672   996952.22     -350970.26     -324097.64    
     71400   4278.0104     -576.06574          48672   996326.52     -351072.57     -324158.67    
     71500   4284.6354      1132.4264          48672   995174.55     -351195.4      -324239.81    
     71600   4268.465       1810.2383          48672   994950.16     -351187.95     -324334.1     
     71700   4272.0773     -107.50633          48672   996085.33     -351165.83     -324289.25    
     71800   4301.432      -1688.4063          48672   997018.84     -351165.59     -324104.33    
     71900   4281.3229     -124.04136          48672   996684.82     -350893.63     -323958.88    
     72000   4290.9343      774.3877           48672   996325.26     -350817.37     -323822.16    
     72100   4334.5417     -181.80625          48672   996781.6      -351043.17     -323773.61    
     72200   4295.5395     -1470.5818          48672   997134.36     -350998.44     -323974.26    
     72300   4254.1734     -176.39124          48672   996131.18     -351057.56     -324293.62    
     72400   4251.7218      1452.788           48672   994700.45     -351286.37     -324537.86    
     72500   4263.8894      1240.8716          48672   994360.44     -351417.14     -324592.07    
     72600   4267.9077      611.04775          48672   995234.66     -351272.73     -324422.39    
     72700   4276.8233     -477.84565          48672   996436.25     -351080.75     -324174.31    
     72800   4303.3403     -872.69464          48672   997055.81     -351082.81     -324009.55    
     72900   4300.2572     -360.39204          48672   996847.02     -351044.09     -323990.23    
     73000   4287.4772      258.40637          48672   996308        -351050.04     -324076.58    
     73100   4283.8654      688.74671          48672   995832.71     -351109.5      -324158.76    
     73200   4277.4227      239.60313          48672   995810.9      -351117.21     -324207       
     73300   4303.6876     -555.03085          48672   996109.55     -351276.05     -324200.6     
     73400   4296.2384     -320.62133          48672   996119.19     -351238.92     -324210.34    
     73500   4278.4951      104.14934          48672   995944.47     -351192.66     -324275.71    
     73600   4284.2932      191.45643          48672   995942.03     -351272.23     -324318.8     
     73700   4272.509       398.99441          48672   995949.29     -351199.44     -324320.14    
     73800   4328.5881     -692.81954          48672   996021.75     -351490.8      -324258.7     
     73900   4268.6524     -49.894526          48672   996171.4      -351142.8      -324287.77    
     74000   4259.4386     -206.15614          48672   996258.05     -351025.24     -324228.17    
     74100   4311.7599     -359.54088          48672   995971.62     -351219.48     -324093.25    
     74200   4306.2396      102.51614          48672   995887.48     -351162.57     -324071.06    
     74300   4281.6176      230.19739          48672   996203.04     -351082.41     -324145.81    
     74400   4305.1896     -1361.6525          48672   996530.54     -351359.61     -324274.71    
     74500   4262.8518      230.02706          48672   995978.07     -351233.57     -324415.02    
     74600   4278.8383      1143.6765          48672   995028.97     -351297.43     -324378.32    
     74700   4295.0489      804.7128           48672   994877.07     -351314.13     -324293.03    
     74800   4279.5454      217.23904          48672   995923.18     -351162.67     -324239.11    
     74900   4283.6115     -1537.7             48672   997218.5      -351118.26     -324169.12    
     75000   4276.7046     -1127.3856          48672   997298        -350949.65     -324043.96    
     75100   4307.3789      560.81721          48672   996142.12     -351048.73     -323950.06    
     75200   4298.1615      879.10906          48672   995118.69     -351183.65     -324142.97    
     75300   4269.8894      1137.653           48672   995144.92     -351291.12     -324428.31    
     75400   4234.8954     -553.1648           48672   995952.25     -351204.87     -324562.21    
     75500   4273.887      -725.95103          48672   996167.43     -351274.05     -324386.08    
     75600   4297.1328      451.87068          48672   995591.96     -351137.68     -324103.47    
     75700   4293.4164      1604.3572          48672   995622.93     -350971.07     -323960.24    
     75800   4294.5368     -701.44872          48672   996895.95     -351052.48     -324034.61    
     75900   4267.6366     -1846.9772          48672   997602.49     -351023.99     -324175.34    
     76000   4275.791       46.56007           48672   996430.05     -351092.32     -324192.37    
     76100   4295.2331      1378.7269          48672   995006.25     -351104.57     -324082.31    
[...]
    303000   2737.6975      16.279704          48672   958816.58     -365766.81     -348543.35    
    303100   2748.264      -398.2062           48672   958777.41     -365801.22     -348511.29    
    303200   2760.8687      190.07827          48672   958405.25     -365830.61     -348461.38    
    303300   2755.3245      124.03239          48672   958460.87     -365828        -348493.64    
    303400   2750.3705     -329.79781          48672   958818.61     -365843.82     -348540.63    
    303500   2749.8609     -381.42917          48672   958734.25     -365871.37     -348571.39    
    303600   2753.3992      304.15669          48672   958352.46     -365896.56     -348574.32    
    303700   2758.588      -21.362633          48672   958440.1      -365900.9      -348546.02    
    303800   2759.9596     -454.85367          48672   958633.79     -365903.7      -348540.18    
    303900   2754.8689     -305.73349          48672   958483.58     -365878.26     -348546.77    
    304000   2744.4639      540.20293          48672   958247.65     -365821.12     -348555.09    
    304100   2749.8157     -69.914275          48672   958487.17     -365862.09     -348562.4     
    304200   2765.2238     -536.49026          48672   958750.98     -365954.88     -348558.25    
    304300   2750.7609      365.56013          48672   958495.49     -365870.13     -348564.48    
    304400   2749.5081      433.76607          48672   958419.31     -365828.76     -348531       
    304500   2759.7751     -202.26063          48672   958762        -365849.86     -348487.51    
    304600   2760.4771     -401.38625          48672   959043.19     -365831.21     -348464.44    
    304700   2743.5673      195.6491           48672   958814.59     -365744.69     -348484.3     
    304800   2764.4049      223.98674          48672   958326.6      -365922.72     -348531.24    
    304900   2742.2555      317.80783          48672   958185.68     -365863.89     -348611.76    
    305000   2736.8565     -106.72565          48672   958545.43     -365885.35     -348667.18    
    305100   2737.8722     -624.4675           48672   958700.6      -365882.89     -348658.34    
    305200   2754.2779      549.65726          48672   958145.01     -365921.74     -348593.97    
    305300   2751.9376      52.618867          48672   958340.24     -365847.99     -348534.94    
    305400   2754.5569     -347.42518          48672   958750.62     -365872.41     -348542.89    
    305500   2748.8457     -124.73599          48672   958656.03     -365852.62     -348559.03    
    305600   2737.6207      604.8997           48672   958419.51     -365785.38     -348562.4     
    305700   2750.8938     -37.315016          48672   958686.34     -365886.08     -348579.6     
    305800   2748.6844     -329.21275          48672   958927.38     -365890.37     -348597.79    
    305900   2738.3258     -163.81501          48672   958788.27     -365829.8      -348602.39    
    306000   2752.2888      321.512            48672   958439.23     -365887.82     -348572.56    
    306100   2743.9892      350.89099          48672   958398.41     -365829.99     -348566.95    
    306200   2742.4406     -118.82565          48672   958786.11     -365793.4      -348540.1     
    306300   2748.5018     -468.90717          48672   958943.77     -365777.86     -348486.43    
    306400   2756.0355      742.06476          48672   958609.69     -365788.53     -348449.7     
    306500   2742.748       149.81027          48672   958753.69     -365718.66     -348463.42    
    306600   2760.8791     -349.03028          48672   958947.87     -365845.71     -348476.41    
    306700   2745.0286     -148.55139          48672   958743.9      -365786.5      -348516.92    
    306800   2748.1182      579.82474          48672   958382.48     -365835.27     -348546.25    
    306900   2739.1088      13.620726          48672   958662.02     -365822.15     -348589.81    
    307000   2737.8355     -431.03312          48672   958890.33     -365785.29     -348560.97    
    307100   2745.8376      419.60971          48672   958511.53     -365741.51     -348466.84    
    307200   2737.475       967.19583          48672   958425.16     -365622.64     -348400.58    
    307300   2763.2855     -1081.5055          48672   959108.95     -365782.59     -348398.15    
    307400   2746.4655      94.414091          48672   958841.2      -365752.39     -348473.77    
    307500   2744.6653      942.57315          48672   958436.15     -365796.36     -348529.06    
    307600   2748.8713     -235.38744          48672   958866.88     -365857.32     -348563.56    
    307700   2740.4647     -232.33751          48672   958959.76     -365802.06     -348561.19    
    307800   2746.892       620.14583          48672   958274.34     -365817.06     -348535.75    
    307900   2749.6557      656.99976          48672   958121.59     -365812.65     -348513.96    
    308000   2742.6893     -456.54728          48672   958948.01     -365775.05     -348520.19    
    308100   2749.4161     -1073.4894          48672   959109.03     -365830.19     -348533.01    
    308200   2768.2685      912.29521          48672   957997.36     -365964.85     -348549.06    
    308300   2743.7019      900.21473          48672   958085.16     -365855.71     -348594.47    
    308400   2740.3787     -1010.6973          48672   959236.4      -365876.22     -348635.89    
    308500   2738.8273     -530.73351          48672   958934.33     -365853.85     -348623.29    
    308600   2753.2282      1529.7375          48672   957600.07     -365869.27     -348548.11    
    308700   2741.1383      1300.7621          48672   958075.2      -365774.5      -348529.4     
    308800   2744.935      -2367.8249          48672   959884.2      -365796.15     -348527.16    
    308900   2746.4167     -827.6457           48672   959042.17     -365833.56     -348555.25    
    309000   2765.2117      2291.9764          48672   957049.59     -366025.07     -348628.52    
    309100   2750.9416      930.16523          48672   957849.87     -366043.81     -348737.03    
    309200   2732.4711     -2094.2671          48672   959657.06     -365945.75     -348755.17    
    309300   2749.7155     -752.48301          48672   958736.15     -365969.29     -348670.22    
    309400   2764.8305      2213.8504          48672   957084.74     -365966.08     -348571.92    
    309500   2753.6332      694.46349          48672   958130.92     -365891.64     -348567.92    
    309600   2756.6172     -1829.9018          48672   959697.96     -365959.45     -348616.96    
    309700   2750.9105     -706.00293          48672   958952.92     -365947.73     -348641.15    
    309800   2734.432       2060.5935          48672   957554.54     -365840.62     -348637.7     
    309900   2733.9225      418.36153          48672   958210.51     -365827.54     -348627.83    
    310000   2750.548      -1049.3258          48672   959231.81     -365878.68     -348574.38    
Loop time of 35.9078 on 24 procs for 10000 steps with 48672 atoms

Performance: 48.123 ns/day, 0.499 hours/ns, 278.491 timesteps/s, 13.555 Matom-step/s
99.8% CPU use with 24 MPI tasks x no OpenMP threads

MPI task timing breakdown:
Section |  min time  |  avg time  |  max time  |%varavg| %total
---------------------------------------------------------------
Pair    | 29.887     | 30.849     | 31.5       |   9.6 | 85.91
Neigh   | 1.2134     | 1.273      | 1.3021     |   2.5 |  3.55
Comm    | 1.8021     | 2.3235     | 3.5276     |  32.8 |  6.47
Output  | 0.0032458  | 0.0041801  | 0.025014   |   6.7 |  0.01
Modify  | 1.1444     | 1.36       | 1.7666     |  16.4 |  3.79
Other   |            | 0.09853    |            |       |  0.27

Nlocal:           2028 ave        2047 max        2000 min
Histogram: 1 1 1 1 2 7 2 3 4 2
Nghost:        4169.25 ave        4323 max        3984 min
Histogram: 6 2 0 0 0 5 3 0 0 8
Neighs:         106755 ave      108841 max      105230 min
Histogram: 1 5 1 5 5 3 0 1 1 2

Total # of neighbors = 2562119
Ave neighs/atom = 52.640512
Neighbor list builds = 367
Dangerous builds = 0
unfix 1

fix 1 solid npt temp ${Tm} ${Tm} ${Tdamp} iso $P $P ${Pdamp}
fix 1 solid npt temp 2750 ${Tm} ${Tdamp} iso $P $P ${Pdamp}
fix 1 solid npt temp 2750 2750 ${Tdamp} iso $P $P ${Pdamp}
fix 1 solid npt temp 2750 2750 0.2 iso $P $P ${Pdamp}
fix 1 solid npt temp 2750 2750 0.2 iso 0 $P ${Pdamp}
fix 1 solid npt temp 2750 2750 0.2 iso 0 0 ${Pdamp}
fix 1 solid npt temp 2750 2750 0.2 iso 0 0 2
run 10000
Per MPI rank memory allocation (min/avg/max) = 3.949 | 4.044 | 4.33 Mbytes
   Step          Temp          Press         Atoms        Volume         PotEng         TotEng    
    310000   2750.548      -1049.3258          48672   959231.81     -365878.68     -348574.38    
    310100   2750.1948      21.474816          48672   958626.16     -365880.53     -348578.45    
    310200   2745.8801      1110.8083          48672   958082.51     -365844.84     -348569.91    
    310300   2757.1006     -172.3175           48672   958820.55     -365875.71     -348530.18    
    310400   2752.2514     -1081.6154          48672   959329.87     -365824.86     -348509.84    
    310500   2755.7106      311.51171          48672   958563.31     -365849.59     -348512.81    
    310600   2751.2029      995.96474          48672   958148.47     -365838.34     -348529.91    
    310700   2750.5911     -319.90669          48672   958881.4      -365866.72     -348562.15    
    310800   2752.6827     -980.82042          48672   959210.6      -365892.64     -348574.9     
    310900   2751.3076      528.94034          48672   958392.3      -365902.89     -348593.8     
    311000   2747.2087      913.21359          48672   958154.02     -365892.65     -348609.36    
    311100   2746.5391     -638.94676          48672   958997.67     -365911.89     -348632.8     
    311200   2745.4854     -774.83994          48672   959102.99     -365924.47     -348652.01    
    311300   2745.9922      669.04076          48672   958245.76     -365932.28     -348656.64    
    311400   2741.7407      794.41086          48672   958223.84     -365887.2      -348638.3     
    311500   2745.5337     -865.42882          48672   959151.84     -365869.58     -348596.82    
    311600   2751.9009     -821.49593          48672   959120.82     -365901.98     -348589.17    
    311700   2748.3033      1007.308           48672   958125.01     -365879.64     -348589.46    
    311800   2753.0329      761.50177          48672   958287.63     -365891.82     -348571.88    
    311900   2751.7046     -1256.1043          48672   959435.62     -365851.8      -348540.22    
    312000   2752.6459     -742.03125          48672   959116.35     -365841.27     -348523.76    
    312100   2748.7528      1694.3424          48672   957839.69     -365806.28     -348513.27    
    312200   2757.7317      473.87562          48672   958473.78     -365815.65     -348466.15    
    312300   2756.3499     -1854.2243          48672   959840.77     -365784.76     -348443.96    
    312400   2758.717      -332.1022           48672   958937.36     -365822.46     -348466.76    
    312500   2754.5739      2271.7134          48672   957512.14     -365832.56     -348502.93    
    312600   2753.2789      9.0262547          48672   958711.89     -365832.66     -348511.18    
    312700   2752.3952     -2341.0287          48672   960036.06     -365826.52     -348510.6     
    312800   2751.3536      231.92636          48672   958580.93     -365849.36     -348539.99    
    312900   2745.3067      2319.4017          48672   957411.73     -365839.55     -348568.22    
    313000   2749.9856     -566.58597          48672   959015.06     -365870.82     -348570.06    
    313100   2749.6951     -2133.4547          48672   959912.03     -365864.27     -348565.33    
    313200   2747.3583      753.73325          48672   958273.87     -365865        -348580.76    
    313300   2749.4495      1820.1988          48672   957680.86     -365880.99     -348583.59    
    313400   2750.3287     -846.21491          48672   959204        -365869.12     -348566.19    
    313500   2754.5898     -1324.2113          48672   959512.3      -365878.54     -348548.81    
    313600   2752.6545      923.29446          48672   958280.82     -365853.14     -348535.58    
    313700   2758.6024      1003.1996          48672   958197.46     -365873.32     -348518.35    
    313800   2750.1059     -789.79142          48672   959210.18     -365803.88     -348502.36    
    313900   2758.8148     -784.93542          48672   959187.69     -365857.55     -348501.24    
    314000   2750.6909      750.97073          48672   958304.4      -365831.79     -348526.59    
    314100   2754.355       560.73164          48672   958399        -365880.49     -348552.24    
    314200   2752.9993     -776.80072          48672   959147.02     -365886.81     -348567.08    
    314300   2751.523      -366.77225          48672   958910.84     -365892.66     -348582.23    
    314400   2747.4237      723.4807           48672   958258.38     -365881.47     -348596.82    
    314500   2746.5175      244.50233          48672   958544.26     -365901.21     -348622.26    
    314600   2747.9034     -732.07876          48672   959088.77     -365933.58     -348645.92    
    314700   2738.88       -172.35236          48672   958720.63     -365882.13     -348651.23    
    314800   2744.9074      753.06407          48672   958231.2      -365902.62     -348633.8     
    314900   2744.678      -55.007652          48672   958705.43     -365865.63     -348598.26    
    315000   2748.9946     -742.92096          48672   959122.5      -365878.97     -348584.44    
    315100   2750.0377      81.136018          48672   958648.88     -365882.61     -348581.51    
    315200   2750.4158      771.32873          48672   958295.73     -365873.84     -348570.36    
    315300   2751.4557     -210.74595          48672   958842.63     -365843.4      -348533.39    
    315400   2751.0254     -729.05343          48672   959135.87     -365817.81     -348510.5     
    315500   2749.663       331.35526          48672   958570.11     -365814.83     -348516.1     
    315600   2755.5631      607.78656          48672   958352.48     -365863.39     -348527.54    
    315700   2754.6136     -253.53821          48672   958890.13     -365870.36     -348540.47    
    315800   2747.0065     -608.41773          48672   959023.15     -365846.67     -348564.64    
    315900   2751.4931      450.77364          48672   958419.55     -365892.32     -348582.07    
    316000   2750.0343      561.55028          48672   958387.95     -365884.06     -348582.99    
    316100   2749.8524     -601.57036          48672   959026.51     -365877.19     -348577.26    
    316200   2748.9493     -517.72003          48672   958975.31     -365867.88     -348573.63    
    316300   2748.0098      667.154            48672   958339.11     -365854.88     -348566.54    
    316400   2751.6849      377.95029          48672   958492.62     -365852.01     -348540.56    
    316500   2752.509      -780.57598          48672   959161.76     -365828.1      -348511.46    
    316600   2751.1809     -423.87997          48672   958920.55     -365813.21     -348504.93    
    316700   2750.5056      939.73706          48672   958197.46     -365823.27     -348519.24    
    316800   2747.5446      177.61362          48672   958597.04     -365844.16     -348558.75    
    316900   2753.9504     -1101.0568          48672   959312.86     -365898.5      -348572.79    
    317000   2749.2403     -21.754812          48672   958702.9      -365892.01     -348595.93    
    317100   2745.6019      1397.9356          48672   957905.25     -365891.29     -348618.1     
    317200   2744.0915     -216.18513          48672   958753.12     -365890.41     -348626.73    
    317300   2742.7777     -1640.7288          48672   959531.6      -365903.43     -348648.01    
    317400   2745.2814      521.32091          48672   958341.93     -365951.72     -348680.55    
    317500   2745.3836      1966.497           48672   957542.07     -365958.78     -348686.97    
    317600   2742.2632     -874.8039           48672   959121.49     -365877.73     -348625.55    
    317700   2743.5976     -2076.726           48672   959853.86     -365857.42     -348596.84    
    317800   2750.4208      1103.337           48672   957997.3      -365898.9      -348595.4     
    317900   2749.8994      2172.4427          48672   957430.03     -365880.37     -348580.15    
    318000   2755.7351     -1482.5029          48672   959531.85     -365880.73     -348543.79    
    318100   2752.8879     -2015.1016          48672   959888.86     -365842.04     -348523.01    
    318200   2755.175       1715.6352          48672   957820.19     -365838.32     -348504.91    
    318300   2754.7301      1701.8142          48672   957751.91     -365821.41     -348490.8     
    318400   2753.4541     -1558.0989          48672   959631.04     -365804.32     -348481.73    
    318500   2758.5409     -1444.9816          48672   959520.41     -365855.22     -348500.63    
    318600   2752.3992      1473.9744          48672   957867.57     -365849.59     -348533.64    
    318700   2751.9475      1108.3131          48672   958135.09     -365854.5      -348541.39    
    318800   2750.2915     -1476.426           48672   959538.5      -365841.93     -348539.24    
    318900   2750.6505     -717.72816          48672   959098.43     -365863.62     -348558.67    
    319000   2744.4039      1265.0098          48672   957942.58     -365865.01     -348599.36    
    319100   2746.6053      356.30111          48672   958420.26     -365898.66     -348619.16    
    319200   2745.995      -1169.044           48672   959350.27     -365885.36     -348609.7     
    319300   2751.6788     -247.7711           48672   958833.19     -365917.55     -348606.13    
    319400   2750.3353      1181.538           48672   958061.54     -365896.4      -348593.44    
    319500   2748.3174      39.572481          48672   958663.91     -365849.83     -348559.56    
    319600   2750.0862     -1148.1778          48672   959354.51     -365841.98     -348540.58    
    319700   2745.3595      90.803416          48672   958687.32     -365818.36     -348546.7     
    319800   2752.3584      1036.4484          48672   958122.69     -365872.86     -348557.16    
    319900   2746.7431     -225.25015          48672   958815.33     -365846.62     -348566.25    
    320000   2744.0367     -1000.7666          48672   959270.71     -365867.88     -348604.54    
Loop time of 34.8126 on 24 procs for 10000 steps with 48672 atoms

Performance: 49.637 ns/day, 0.484 hours/ns, 287.253 timesteps/s, 13.981 Matom-step/s
99.8% CPU use with 24 MPI tasks x no OpenMP threads

MPI task timing breakdown:
Section |  min time  |  avg time  |  max time  |%varavg| %total
---------------------------------------------------------------
Pair    | 30.22      | 30.486     | 30.758     |   2.7 | 87.57
Neigh   | 0.81114    | 0.83253    | 0.86817    |   2.1 |  2.39
Comm    | 1.7888     | 2.126      | 2.3765     |  11.4 |  6.11
Output  | 0.0034531  | 0.0043914  | 0.02534    |   6.6 |  0.01
Modify  | 1.1024     | 1.2427     | 1.4268     |   9.6 |  3.57
Other   |            | 0.1212     |            |       |  0.35

Nlocal:           2028 ave        2049 max        2011 min
Histogram: 1 2 2 7 2 5 2 2 0 1
Nghost:        4166.12 ave        4314 max        3969 min
Histogram: 5 3 0 0 0 2 6 0 0 8
Neighs:         106753 ave      108972 max      105218 min
Histogram: 1 3 6 5 3 1 1 1 2 1

Total # of neighbors = 2562071
Ave neighs/atom = 52.639526
Neighbor list builds = 242
Dangerous builds = 0
unfix 1

log log.${namestr}.twophase.dat
log log.T2750_n1_A15.twophase.dat
