ITEM: TIMESTEP
0
ITEM: NUMBER OF ATOMS
8100
ITEM: BOX BOUNDS pp pp pp
-17.3792275291 35.3548324347
-17.3792275291 35.3548324347
-17.3792275291 35.3548324347
ITEM: ATOMS id type x y z
3692 1 -16.4983321785 -14.3706440377 -12.2470993651
5457 1 3.3949610503 8.520898318 1.4638713256
1685 1 -12.1099678741 -14.2654667607 -15.6715776547
7039 1 8.1001229544 -16.6370535857 3.2585177153
2265 1 -14.2254604634 -14.5180062171 -14.0952480196
312 1 8.7434358314 -6.6814098425 -1.4448419208
4223 1 7.5130608645 -6.7295787149 -5.6703747558
6921 1 -3.2203220295 -5.9176985558 8.2736559573
5592 1 -16.0762157749 -9.9766434585 -3.4092928837
2010 1 -2.720697895 4.1391961045 8.9375813162
2917 1 -3.1689537778 -14.0082817494 -13.3866676386
3046 1 0.3281343338 -17.0874542691 -14.096178421
147 1 -5.0297172024 -16.9994571148 -14.9736078408
3316 1 -13.1414239404 -17.1829786558 -15.7975564458
5705 1 -1.0755009532 -13.4416101317 -14.6630725207
6215 1 5.7991663998 -13.2913197859 -17.2653770877
805 1 3.9113764174 -14.4680382178 -14.9825177582
1451 1 0.8947462641 -13.9514134045 -13.1261704999
1095 1 0.6069091464 8.0823225257 7.7677251446
4999 1 7.3944244107 -13.8274163486 -14.3092832917
5837 1 -15.6541018143 -16.5550432199 -14.7133818323
7901 1 -17.0008499675 -15.087878188 -16.6288715536
7210 1 -14.4412812651 -13.6576003648 -16.8271882058
3223 1 -12.0551609302 -16.5365474635 1.7126332521
4395 1 0.8752466284 5.4245334125 -16.3092256269
162 1 -3.0343634101 6.9687976869 -11.096832185
546 1 -9.4039168143 -15.1128839335 -15.2004651211
1119 1 -14.5284416827 -12.6762664261 -12.4607886882
1654 1 -5.7089718196 -13.5313518956 -13.3775120494
2096 3 -4.4347026368 -8.4121140629 -13.4593247498
2387 3 5.1286212736 8.7880936815 -15.5006912629
4517 1 -13.1354562355 6.7447782129 8.1359641925
3397 1 -3.563337536 -12.0855985241 -14.8849619918
4167 2 1.3987182495 -13.0965616722 -15.3296451172
7664 1 -1.9709455225 -9.7774342011 -14.1834999115
230 1 3.0279212155 -13.2535989852 -17.0155943719
5560 1 5.4019301335 -11.6821051775 -15.4626238513
5038 1 2.5661465827 -11.2372250806 -15.2129164371
5232 1 4.0373358744 -8.8250640205 -16.2834498921
7098 1 3.1703688235 -12.8946085929 -13.0413685712
1274 1 7.3889938625 -10.4367557514 -16.9661759992
407 1 5.4983899396 -11.8902250819 -12.6748928061
41 1 -2.2781137631 -15.7747479922 8.734197591
1562 1 -6.360047685 -12.196487694 6.2974161834
8 1 -16.0611638466 -8.7887695776 -13.0342628744
1289 1 -15.5076324173 -10.3834654188 -15.0466798734
5632 1 -12.9893997523 -7.4134541015 -16.8879744978
581 3 -10.9542254911 -9.7290894939 -13.9763385253
4290 1 -7.0761250745 -7.2881204983 -15.4522268597
48 1 -6.4974287636 -7.1733352961 -12.7648165969
1599 1 -9.1445535447 -11.7795767006 -14.9709421043
4367 1 5.878378264 -16.4967503095 -7.9823524027
7297 1 -3.874769241 -6.3145558355 -15.0395444886
5138 1 -0.7214284246 -5.8363476053 -14.6415614315
5119 1 -8.7159384868 -12.9683847853 -17.1431873506
3956 1 1.232955576 -8.1484509902 -14.9160323106
815 1 1.6711668027 -7.1868257224 -12.8371135101
3245 1 1.9148961787 6.8521019187 -11.6444279151
4529 1 -17.0918114704 0.631180133 8.2875542598
5590 1 -7.2980524037 -16.7713897348 -2.4923792119
995 1 3.1887886787 -6.1250190552 -15.0147284262
3990 1 1.3231608325 -15.3065775888 -15.3909752899
1351 1 -12.4650305078 8.2135978419 -1.4453721599
917 1 -16.7688723436 -2.8230813532 -15.1431966575
3387 1 -13.1479162927 -4.5310973038 -17.0832963477
1656 1 -9.9841954436 -17.2208108894 -9.1217778122
4890 1 -12.4118840652 -2.0146722002 -16.2866692323
7209 1 -12.5609084764 -3.65941589 -14.0196732808
4664 1 -8.9982571471 -5.4649155536 -16.4459741995
1765 2 -10.4740650165 -3.6277344526 -15.335956114
6515 1 7.509441071 3.6989032785 6.5165675741
4959 1 8.6667430206 -10.9400704601 -6.461573946
4074 1 -6.3360511363 -4.7551887222 -15.5272231624
676 1 -4.0880773954 -4.0995437397 -17.103539931
4821 1 -2.8936502093 0.1264790438 -15.6032573955
5730 1 -2.7893421162 -1.7726382069 -13.5981894844
6258 2 -1.3135867068 -3.8251376885 -13.5526944465
7500 3 1.2819218954 -4.1063444436 -14.0612746361
5937 1 4.556270137 -4.0023278574 -14.971343261
6877 3 -2.1062318335 -3.6536069979 -15.7109362795
304 1 6.3483663617 -7.384328095 -15.732353947
978 1 6.4273480582 -2.3137598319 -14.9500476839
4878 1 -2.3053022981 -16.5853602158 -14.523762102
4703 1 -11.8154640178 -15.8069314449 -4.1504566601
149 1 -8.5880798778 7.5961056291 2.9921270404
6510 1 -15.3740230685 -0.0543640386 -15.7830420716
5489 1 -11.5421307662 1.5052341954 -16.1094262391
3503 1 -9.1832223548 -9.7256212218 8.3647677734
3129 1 -7.2880378453 2.0428921592 -14.234286612
252 1 -7.368171874 -0.9247118867 -16.0695476871
100 1 -6.0401624033 3.5628608198 -16.0660579964
6110 1 -5.1791492223 -2.1535433832 -15.3254423419
1910 1 -4.0091261339 2.0223498285 -13.8887765424
5885 1 -1.3422694881 0.4235976715 -13.4215367021
236 1 1.3231641098 0.0517330198 -13.5745919433
3650 1 8.9685663298 -2.2417534225 -15.4858672083
446 1 7.9486992889 -7.9649337887 6.196080049
3105 1 2.5070979492 -2.2024193602 -15.1010753432
3638 1 -0.317256902 -2.0367306859 -15.0163790849
7379 1 -13.8007119579 -5.7790421752 8.9845069734
8019 1 -14.3772392625 2.5157871434 -16.6242023428
4482 3 -9.5553269485 -1.7023332362 -16.0530110689
7990 1 -11.3036117873 4.5278088909 -16.519051056
3064 1 4.1632643321 8.4879271587 -3.2033870801
1701 1 -9.010141799 3.0221566296 -16.2830036652
1501 1 -16.936708115 0.6014668735 -7.4147278452
4265 1 -5.3314151537 0.8731584885 -15.8127381581
4055 1 -6.2450808684 4.887103375 -13.8148817494
25 1 -6.0842736157 6.6019538249 -16.0393047845
4054 1 -3.7640602477 5.33781701 -15.4205940819
4824 1 3.4646055034 7.0012988318 6.1191458961
2667 2 0.3593342742 2.0850314171 -13.7513205302
210 1 -1.1470825645 4.1498942892 -14.8428967943
1940 1 -1.9060945584 2.8852368466 -12.5103311188
6035 1 -0.1553946658 1.323987517 -15.9239578778
1619 1 2.9996894409 1.7994888853 -12.3177405748
5820 1 5.1371249086 4.1035574979 -16.9713017386
6750 1 6.6077377669 0.9765426024 -16.1808071529
521 1 7.4351765734 3.3231360461 -14.3654715172
5109 1 -3.1309463146 -16.4504655786 6.2049477183
2346 1 -12.6735280533 1.4520548038 8.3531962749
2545 1 3.3586335984 -17.1349858092 4.4151594322
2097 3 -14.1453156176 -16.4252069291 -5.3963567856
6603 1 8.3660077694 -3.5605737155 -5.9045423682
2221 1 -9.2858548822 5.3981620326 -14.8395886362
754 1 -11.6467535525 8.0075527027 -15.5287727991
4110 1 -8.4815577092 7.8317451048 -16.128662413
5624 1 -17.1157707419 -12.6441495582 -15.4937112261
5108 1 -5.1968917583 7.6524785018 -12.8128256648
5261 1 -7.686176516 7.0374642834 -13.4246950477
6901 1 -0.8782026194 7.2785072897 5.4132667438
4515 1 -1.1471136997 7.35168682 -16.4697553349
1600 1 -17.2673558051 -11.9174287824 -12.857904727
725 1 -6.1153421632 -0.8846722028 7.0578655673
1370 1 8.8948312029 7.2007960959 -1.146154945
250 1 2.1804659515 3.0090554226 -14.9251583182
5689 3 1.0025350943 6.2751602799 -14.0597426084
3100 1 2.4975496611 8.1950181585 -14.6327324756
1005 1 3.6680730159 6.4605860281 -16.4105541874
1563 1 -16.6377180006 -4.4910158148 -1.1943191548
3527 1 6.6609960716 5.6832013317 -15.4388680246
2374 3 -16.5019660086 -13.5415279848 -7.8850598615
4554 1 6.4611090667 -0.4667898217 8.3727816442
5889 1 -0.7439751746 -16.8419969482 -5.7520806772
6211 1 -11.217575489 -15.0877331438 -12.8901537007
2021 1 -12.5104682724 -16.5572642861 -10.2270902324
7139 1 -9.2918148175 -15.399881853 -10.8725309791
2434 1 -7.3889021247 -15.8244501605 -12.7891699772
5558 1 8.0333379364 2.9199195032 -3.2110853006
6325 1 -6.4415478314 -15.5056273588 -10.1366770954
2581 1 -4.4339670372 -13.6078122844 -10.8951090518
1228 1 1.4688347735 -11.5883246873 -11.0087376013
5128 1 -0.3084705169 -13.5176883688 -10.5897554464
434 1 -1.452399483 -16.1729820079 -12.0227555131
4333 1 2.3991775466 -14.1440688422 -11.1678657494
4177 3 -10.1492420119 -17.2491058505 -5.5520843364
1866 1 -6.8847564227 -14.3151409062 -15.9275543078
3132 1 5.4563011349 -14.654689644 -12.723194739
6705 1 4.6176130958 -14.2073661628 -8.7808141625
7394 1 -9.822313597 -14.0416207439 -5.9977776874
1955 1 -16.364876141 -1.8093307685 8.6634139533
7302 1 -14.416246837 -10.0203940062 -11.023179673
6729 1 8.0147669662 -1.693452501 0.0557372407
1057 1 -16.3943501854 -12.2393319592 -10.2854461567
4441 1 -9.6540529274 -11.5334585398 -11.8567337036
1536 1 -12.2621276746 -11.1396656277 -9.8029364272
6393 1 -8.9082654526 -13.6718666422 -13.1941710432
7468 2 -7.2724302507 -11.5648422929 -13.0181884472
5738 1 -6.6706984499 -12.6534803187 -10.714097175
2741 1 -4.5887979483 -10.9249433263 -10.1175847775
5304 1 -5.1713747495 -10.6621603597 -12.7858072978
7793 3 -1.4564913252 -10.1776079907 -10.2069681524
181 1 -2.3824362436 -11.7927441065 -12.4431462752
2300 1 0.3035518809 -11.1499477036 -13.2086205886
7015 1 -0.2437770134 -8.7465918535 -12.0658398824
2792 1 -2.517443572 -12.4036306003 -9.2036455212
5930 1 3.1860535034 -9.451745307 -12.2596434657
4618 1 4.3529432802 -11.466280824 -10.3414392542
4626 1 5.1955641092 -9.297587379 -13.7903016804
140 1 7.0925856824 -12.38584507 -10.5456362852
6224 1 6.2997248855 -9.650062085 -11.4686599696
5059 2 8.7661264608 -7.5550982386 -3.7225532215
1210 1 -15.4858790079 -7.5891724247 -10.0379461142
3614 1 -14.6910717494 -6.0364871383 -11.9772483299
7560 1 -14.047942029 -7.2732276363 -14.4945702848
6572 3 -12.1428426563 -7.0215085668 -12.7768369464
4362 1 -13.3416889497 -10.1073971047 -13.2121009773
5628 1 -9.3478111911 -6.983287361 -13.2510420692
7728 1 -8.3622730847 -9.6483158102 -13.6019463339
5328 1 -6.4253164449 -10.9968775609 -15.0396450013
1389 1 -8.4178833853 -7.6416781542 -9.9773335407
7296 1 -4.9198139905 -8.4354958108 -11.0769416074
6286 3 -2.4539820473 -8.0680644336 -11.4483824149
697 1 -4.1347559166 -5.9769357805 -11.660541187
47 1 1.0826952482 -8.8155280806 -9.623650826
1960 1 -1.0204054079 -6.1621287057 -12.0793057398
7767 2 3.2264688163 -4.9606536299 -12.9188984989
7279 1 3.4262349795 -6.5108533078 -10.7472774733
7113 1 1.1215065494 -4.9808444672 -11.4534093467
399 1 7.7275197577 -8.0705412784 -13.5813390794
2528 1 5.6883788877 -6.7416128038 -9.3059243754
6248 1 -16.6804357405 8.9156259811 -8.8083791272
228 1 -14.8446832056 -4.8051299685 -14.6611090158
618 1 -12.6633961706 -7.0193216016 -10.1663524169
1538 1 -12.4853901884 -4.4825566828 -11.3399439534
1541 1 -11.5415144961 -6.0980519846 -14.9833438742
6448 1 -7.8170001136 -3.0408904444 -14.2315704082
426 1 -8.1307779015 -5.0043658994 -11.3087067357
3432 1 -9.9848781559 -2.7488958147 -10.7025126258
7648 1 -10.1733694001 -4.6193794117 -13.2437762921
7817 1 -6.0012546899 -6.1238759441 -9.7170074289
1667 1 -4.151317958 -4.0050181151 -13.4927580801
7327 1 -4.1258452055 -1.7175275526 -10.2872691576
4385 1 -2.1356300275 -3.4909674895 -11.4170453244
2257 1 0.1061684217 -2.3036970319 -12.0694007896
1483 3 2.457278882 -2.3962702241 -12.7009237723
3969 1 3.6382423935 -3.7399768423 -10.7821817674
4672 1 5.334520952 -6.3624769741 -13.1422410171
443 1 6.4740048114 -3.7717332031 -9.4409059905
3971 1 7.5444495499 -6.43488464 -11.3802067025
6955 1 -11.3470753167 -7.3725423312 8.2777505428
3930 1 -10.3668459935 8.5346270424 0.3428397742
3476 1 -15.3396116855 -8.5098681618 8.3861087871
7414 1 -14.8888983891 -2.1163958115 -13.4166791544
4253 1 -14.9857446082 0.2078283995 -11.5175504738
3689 1 -11.3062337082 6.9373567165 2.6898855737
1023 1 -13.0612590925 0.158994072 -13.6155136343
7010 1 -10.2708670572 -1.6601050326 -13.287907302
4580 1 -9.2612854058 0.5064581377 -14.7344985272
2031 1 -10.894290315 4.0646900991 -11.1359736764
5832 1 -7.4722817606 -2.224077082 -11.7284162672
6545 1 -5.6146840026 -3.9736325863 -11.2161102287
3297 3 -7.5170437361 -2.4404681934 -8.9674392053
3408 1 -5.762192229 -0.4555355453 -13.1680570283
6126 1 -6.094375509 0.2032904923 -10.3839982295
1675 1 -3.4405822148 0.5178634335 -11.6529752513
5497 1 -1.4421087007 -0.9746798102 -10.8299071978
7055 1 0.6012451731 -0.3675257783 -9.4142819821
5900 1 -2.1281665468 1.917792584 -9.7768731586
7883 1 2.9875859377 -0.3911139159 -11.0169779741
6182 1 0.0226195062 1.3247140812 -11.3701821037
7660 1 5.186757286 -0.8725191463 -13.0907118553
1732 1 5.0781396999 -1.5173791916 -9.2208618308
1241 1 5.9765273265 -3.6586252998 -12.0711257609
6002 1 8.8826616334 0.704791542 -11.1510668772
6042 1 4.0932871861 -0.6337188931 6.4242607455
7307 1 -15.7093185517 1.8357460359 -13.7633138448
5543 1 -15.163595424 3.2515134115 -11.4494042687
3324 1 -16.1459724439 4.8369297153 -13.5757904932
2353 1 -11.6056627348 6.121929563 -9.8610804217
2315 1 -13.3340263794 3.2872888919 -14.1001241107
7752 1 -10.518875847 2.3763231379 -13.3811189642
1495 3 -12.679083737 2.0526477348 -11.7216971188
4310 1 -9.5612756488 6.7789674163 -11.1971805933
5032 1 -8.6790977562 4.1345712817 -12.6131095196
4026 1 -8.5468168991 2.8990026092 -10.2377653925
6550 1 -8.2130892511 1.0501998924 -12.0748362548
1047 1 -6.431811045 6.0206237375 -11.0179952597
5651 1 1.4461870038 3.8118622264 -12.2567956062
4327 1 -5.6133567099 2.5565866654 -11.6654375021
1024 1 4.2134331994 4.6727540591 -11.3335817957
2252 1 6.5581604766 2.8471901696 -11.2444596761
1146 1 5.0672731828 2.6244700248 -13.4934863551
1054 1 4.0416068702 0.4908599739 -14.9426679179
3637 1 5.5945644332 0.3175971782 -10.970264531
1170 2 6.3125136623 5.0347583055 -10.1926185254
3505 1 -13.7182123776 6.3325478883 -11.9015564837
2148 1 7.5066168062 -4.9120901002 -16.4873231131
6713 1 -15.9599173589 7.4517837081 -13.7826215237
8077 3 -15.1561323686 7.4880081405 -10.3517197287
2017 1 -13.4635787341 5.4493616046 -15.5712918147
247 1 -12.5107929913 8.7669209992 -10.7641768526
3513 1 -13.2070081872 -16.6649937286 -12.7942276765
7743 1 4.4434348481 8.7439968067 3.7474171774
6220 1 -11.4687201339 5.7257166402 -13.1438953293
3483 1 -7.5375370119 8.1397626478 -9.7920277354
7211 1 1.0520487138 -5.3133629079 -16.7116425673
681 1 -16.8641964267 -15.2001274897 -5.9080650461
7027 1 -2.643997195 7.177842539 -13.8760919647
2740 1 -16.6784671205 -0.2066474264 -0.1502846342
1448 1 -3.8611059518 4.7710065872 -12.7891672303
5301 1 3.7298827959 -15.9640984676 -0.3434502201
1726 1 3.5918498033 4.9119962523 -13.9883360116
3955 1 -0.8838710384 5.4107746818 -12.3767454799
2760 1 3.8473239712 8.7970698501 -11.0999362996
2516 1 6.5581769299 5.4849361788 -12.4275958914
5513 1 5.5435303893 7.7220007532 -13.3213358424
4257 1 8.1708844052 -11.6306990052 2.128694082
665 1 -10.4086701268 8.7591931066 -12.8453661921
4162 2 -1.2581557424 8.8986537096 -1.9528610635
999 1 -14.5441012627 -15.8926674022 -7.7428263689
15 1 8.2971914307 -16.8664631946 -3.1797695687
7607 1 -13.1181617024 -13.5938022184 -8.4051582443
7093 1 -7.9011628802 -13.1772191328 -8.0232437475
2800 1 -10.3254780585 -14.215712615 -8.8346274868
4811 1 -12.0426971253 -13.8134322986 -10.8422635452
3943 1 -8.0390700399 -16.7749845173 -7.2010283163
842 1 -3.287348507 -15.2829725781 -6.3158201414
6456 1 -7.4095722862 -14.5394008485 -5.5579783605
6446 1 -14.9785496331 6.3480382771 -6.7205985653
4093 1 1.8136825644 -15.6726219647 -6.3000036799
1247 1 -0.7612817119 -14.4948261277 -7.8534405436
6199 1 -16.8836003589 -2.3566713517 -11.5359562433
738 1 3.1983548979 -16.4985530919 -8.6405783265
2492 1 5.2821882303 -14.973533138 -5.6326822099
7337 1 1.0460892259 -16.064977689 -9.9914231967
1 1 -14.6101668783 8.3149233677 -4.0039517177
504 1 -11.5245584651 -4.2952232125 8.7111301693
797 1 -16.546185882 0.0173540091 5.6317967511
4050 1 -16.4283258213 -9.3260308744 -7.9912898701
2583 1 -14.7127332785 -11.3871817693 -7.8981577882
6777 1 -9.3770385329 -10.8599702231 -9.134476561
7385 1 -13.7678539471 -13.7225616538 -5.7222435406
5118 1 -7.313320795 -9.9276842917 -11.0553208657
2426 1 -8.7359862038 -10.2081556336 -6.5726562324
3905 1 -6.8726746868 -10.9605918096 -8.8908942417
2678 3 -6.3598784035 -12.0045540835 -6.4318121038
1750 1 -4.2699123301 -10.6849314416 -7.4337653937
3906 1 -5.0952122067 -13.9611333789 -8.0254319396
6303 1 0.3778591479 -11.7310491907 -8.7242367701
2559 1 -1.7690833746 -12.093898698 -6.617552822
2709 1 -0.0287985947 -8.9049802272 -5.1590993884
1139 1 2.0579183531 -14.0688502721 -8.4929653768
10 1 3.3856672068 -12.9204052704 -6.3222850012
5001 1 5.1504034445 -10.7639632765 -5.9265311685
1837 1 0.7421802087 -11.5035612067 -6.0447993023
7914 1 6.2912709888 -12.0828333482 -7.9624005828
6086 1 8.2793060105 -9.8409547045 -8.8594770587
5016 1 6.3781556129 8.2896745102 -0.9071391981
6658 1 -16.391411818 -6.8191051576 -7.5162799089
4716 1 -11.1825323783 -6.806793958 -6.7412562344
3702 1 -13.4615093912 -8.8396464732 -8.4446339189
3853 1 -10.7083117526 -8.5078301057 -8.9071709382
4309 1 -13.7044957781 -8.5082558921 -5.9096650865
4472 3 -8.8711720609 -5.5368060031 -2.8383322264
2851 1 -6.0051869862 -8.3716492373 -8.563660019
4065 1 -10.308176682 -8.9148416077 -11.7105202929
4825 1 -8.5325074363 -7.4478576717 -7.1688012708
5096 3 -3.1778912575 -7.1564021178 -7.7790935215
4457 2 -3.2790822559 -8.884150187 -9.2994115068
4322 1 -1.19640243 -6.9513156509 -9.7472530555
2314 1 -3.1917261444 -4.5259705012 -9.0265616174
2718 1 -1.3927081986 -6.3732390075 -4.7201246649
8048 1 -1.5103773899 -9.3603350383 -7.7100638912
1085 1 2.4954280071 -8.7575950436 -5.5437940501
6310 1 3.0595927791 -10.335503146 -7.4968193684
2934 1 3.0511892707 -7.8860002978 -8.2825213473
6071 1 6.3455883913 -15.9764031446 -15.3580910581
2425 1 5.3523881017 -9.6307269059 -9.0399194496
6296 3 6.6913420965 -8.6948386779 -7.0588934366
4060 1 -14.079781875 -5.46722927 -8.9490791678
7156 2 -14.2302603117 -3.1437613529 -8.1240122955
6328 1 -15.90625681 -4.4893663321 -7.0143336161
1086 1 -10.3505755946 -5.6243542686 -9.7194125612
3924 1 -12.1339145349 -2.5617963987 -8.9603428088
5710 1 -12.8133666308 -1.5839380351 -11.5719713744
6607 1 -10.8551940379 -4.1144377413 -7.1880860568
6390 1 -7.667952558 -4.7922340381 -8.1669682898
6994 1 -9.8353513063 -2.550532543 -4.7503384333
1968 1 -7.4215070092 -3.1333534883 -6.2609653902
5307 1 -5.3878877801 -5.5806265708 -7.2052526751
5235 1 -5.2954259086 -2.9014990371 -7.8663612412
7303 1 -3.3773083331 -3.1825619974 -6.3665145348
590 3 -0.2881550205 -4.0675091934 -9.4641384168
1561 1 -1.64901392 -2.2244413285 -8.3550989841
4523 1 -4.0557348778 -0.7915035347 -7.3196550921
3866 2 -1.6132985605 -1.2630082233 -6.086912025
5806 1 2.2355829357 -2.5899790672 -8.9812348104
1948 1 3.9410370939 -4.995719501 -8.4681463961
2037 1 8.0294462786 -1.4317705774 -9.4735724866
6426 1 8.5132049509 -6.7925726969 -8.1340503522
3271 3 4.3741688809 -4.8171633179 -5.4825441913
2256 1 -16.8308556972 -2.0516705396 -8.7656474698
19 1 -14.731135614 1.7837235921 -9.1126816156
3288 3 -14.8120481479 -3.1851697585 -10.2221714181
8045 1 -10.167280216 -1.3463159882 -7.700304661
1841 1 -12.236793937 0.9164715766 -9.5673138479
385 1 -10.6468149793 0.4932373337 -11.4944369285
7980 1 -8.6575620673 -0.2719589715 -9.7307449909
6839 1 -10.1533578348 1.6852249096 -8.0472665546
7171 3 -6.6831117682 -0.4479057545 -6.8033939061
7123 1 -5.4642141645 -2.7887397108 -4.4897793022
1689 1 -3.985648234 1.9146531955 -8.2563405454
4509 1 -1.2843303102 0.7459717408 -7.4948445675
3231 1 3.6008520908 0.7636002083 -8.6355003331
5129 1 3.340293392 -1.021480311 -6.4708408952
3504 1 1.5880299805 1.208049889 -6.4203080901
4393 1 7.7453283258 -0.7847190812 -6.2547455204
7285 1 -16.4350347033 -15.6228884382 -9.3876328664
5117 1 3.7042250089 8.9846851167 7.8436886546
7217 1 0.0624086199 -11.1160806224 -16.1763422702
6457 1 -12.3935873509 3.2356135254 -8.464602511
1635 1 -1.123003492 -7.8190296944 -16.4216623327
112 1 -9.8847076347 4.3480944754 -8.5372208539
2320 1 -8.3972493018 3.8612142747 -6.5839349744
2116 1 -6.8368920862 1.5097995359 -8.3913335138
4460 2 -6.0389303195 3.1833685286 -6.5605484102
7147 1 -6.4239891701 5.7883299447 -6.2450481839
2834 1 -6.3906520679 4.3160384524 -9.2271009721
22 1 -4.2747681476 4.6813414822 -7.4596261415
6017 1 -0.5522682624 3.9336278403 -9.8558435431
3240 1 -1.6649883295 3.3037525055 -7.2031469759
4025 1 0.9785234878 3.8276766277 -7.4415724573
7910 1 -1.4177624437 5.2386310256 -4.8719009282
7082 1 2.2320802525 2.6484998101 -9.7562059458
3572 3 4.8431533684 1.1535262005 -6.5846964738
3374 1 3.0440331651 5.8279086515 -7.2331818939
1698 1 8.1154808798 4.6018068679 -5.5013047713
2159 1 6.4601107878 0.983584448 -8.653219955
6554 1 4.6725214141 3.2475411454 -9.1734921403
8065 2 6.0089947555 3.5922151715 -6.3541698488
1542 1 7.5056109818 3.6116115309 -8.4361611266
5482 1 0.4631640271 -9.017269757 7.1595939792
7512 1 -16.5911275697 8.3883297773 -6.0694431274
155 1 -14.2780781429 5.088357064 -9.366728373
2772 1 -12.4713800328 7.260939294 -7.630272076
2607 1 -13.7979576551 4.2857621741 -6.0493217053
6930 1 -11.448502657 8.0811960959 -5.1964223356
6842 1 -9.8095975215 7.3424318126 -8.3074034604
3166 1 8.9365568226 -5.051885647 5.8675803507
3279 3 -8.5415859928 7.2579924777 -6.3671891635
3358 1 -4.9826787956 6.8173360142 -8.9778266931
2236 1 5.5090796828 7.4204941939 8.6495730873
319 1 -16.7234273307 -7.9737429879 -15.5925651877
7610 1 -3.5950403549 3.9682735759 -10.2637695349
4118 1 -6.0385381648 4.4425963645 -4.2128199518
4795 3 -2.0357177197 5.7589730726 -9.2428049858
6617 1 0.3044468428 6.6652317928 -6.8235282603
5752 1 1.6330113881 5.5625630137 -9.2283017166
4988 1 -11.4519292109 -12.343950351 -13.616641467
7761 2 3.8572674549 6.6346253336 -9.7004550994
6392 1 1.8901787243 8.2059727106 -8.6224512551
4487 3 4.497794787 8.2110723812 -8.291248106
4516 1 5.8435066035 5.7991757815 -8.0947852199
5396 3 5.8061226976 7.0986501239 -10.6938559805
3212 1 0.5675278362 -16.4029971922 7.2519977788
453 1 -15.705137851 -13.0748094131 -3.1363272911
4766 2 4.5816528868 -15.8772288591 8.6882597985
527 1 -15.7771391188 -15.7818725885 -3.5656027943
3835 1 8.2324985659 6.4695455874 -9.4410720122
412 1 2.4664798556 -16.3803289885 -12.6431144144
4656 1 -14.891780443 -2.4629400148 -16.7172213835
3912 1 -8.4176370004 -12.1560769465 -4.5350797226
7525 1 -6.964407198 -11.1767403208 -2.4525638745
5077 3 8.4183160961 -16.7450583286 -6.2544936413
4000 1 -10.2943457935 -10.4774581911 -4.1267489949
493 1 -11.3431191509 -12.9559917171 -4.2174071679
5370 2 -6.2286819084 -12.925306693 -4.1295296145
1668 1 -7.8587416254 -14.0138885193 -2.5237289215
3688 1 -4.8993344934 -13.6370613283 -2.2088327072
6112 1 -5.3575812122 -15.4409185379 -4.2957979722
7188 3 0.2017401815 -15.5748431028 0.5657932344
4088 1 -1.6407020346 -15.6555322367 -0.7278948741
4264 1 4.395568876 -13.3630408244 -3.3594348629
8016 1 7.3283827559 -12.3642868781 -4.6198530703
5719 1 -15.8454121753 2.2095530268 4.1004546083
2721 1 7.5582551914 -14.2846352634 -6.6034651148
7334 1 2.1276820642 1.0208416925 -16.9677728294
877 3 6.2964072343 -15.098711691 -3.3578702876
6923 1 7.7424101608 -11.1015530471 -14.255490571
6948 1 -13.5799126902 -11.2053775137 -5.5513405424
207 1 -16.3972017395 -12.2687604547 -5.7857976282
7548 1 1.9090353297 7.6928944501 3.7772903977
313 1 -11.3488006616 -11.7371002113 -7.2585139642
2842 1 -10.6603479643 -7.5397290992 -4.219068794
3313 1 -8.0712438268 -7.7014781605 -4.6604063397
1525 1 -5.0747494466 -10.7774262399 -4.2370562845
4969 1 -2.7867152623 -9.2910948276 -5.3764862772
5463 1 -1.4634658548 -11.2477332505 -4.2999111735
4125 1 -3.9809253803 -12.8337410922 -5.3112500986
377 1 -1.1242181609 -14.3348635396 -5.0262493315
7982 1 -1.1427720343 -13.4927907976 -2.3761999512
5685 3 2.1189940036 -11.6739872264 -1.7787780026
6275 3 4.3623942138 -10.9917055829 -1.5979202571
2894 1 2.9449340071 -11.4674467242 -4.1182694182
6659 1 6.9094802144 -12.4740191678 -1.9161834237
2623 1 7.3171853832 -9.4007400347 -4.4383907182
857 2 5.682606304 -10.9906262602 -3.4616304337
4783 3 -16.7859319117 3.3454524849 -5.0631254067
3723 1 -7.8623137493 8.8883141865 -0.8737637045
2526 1 -12.7751901637 -8.5646744176 -3.5566613361
2677 3 -16.5403935347 -8.0690187506 -5.333190758
5657 2 -15.7233068225 -5.8125102509 -5.1498922867
4182 3 -11.0149965895 -9.294115717 -6.1976889268
6376 1 -13.9887504164 -2.3849115289 -3.9850056347
5614 1 -13.0765098028 -11.4321320843 -2.9351704635
6760 1 -8.9671058905 -5.2741905018 -5.3587792378
6987 1 -8.3838048003 -7.706459194 -1.3963073915
1382 1 -5.1547320899 -6.3620922534 -2.364981675
3244 1 -6.415465828 -9.0391928699 -5.7115303029
2997 3 -3.8693023953 -6.8737619832 -5.3903112473
5662 2 -5.1387522104 -8.30674176 -4.0128887142
7772 3 0.1981933107 -7.5585575344 -7.218184588
3142 1 -1.187637994 -5.1221494452 -7.4640456034
8055 1 -0.8746176238 -9.6012269887 -2.5097759421
4340 1 4.4620322223 -8.9643493249 -3.7094794136
7436 1 4.3568543043 -6.5023496379 -2.0027005798
6247 1 6.8544079357 -9.4343520187 -1.7450578603
1921 1 6.3136465363 -6.802385129 -3.3074840716
2568 1 -0.1450594955 8.4024651547 -13.2052077365
6339 1 -13.4599099537 -4.9844609528 -6.6154295397
5580 1 -16.4687449107 -3.6779143775 -4.5371832365
1084 1 -12.7515736963 -2.4032921285 -6.2665130552
1438 1 -10.9268941558 -0.8514309409 -2.9051872752
2178 1 -8.4373255269 -2.9892749799 -2.2430465168
7872 1 -6.6237819691 -0.5800673777 -1.3489032806
2349 1 -5.2064114367 -2.9115957477 -1.7456510519
4570 1 -6.0934348456 -5.2517463061 -4.5196218783
7938 1 -2.3697028996 -2.2046436874 -3.8204838131
7096 1 -3.5321419759 -4.8880478715 -3.5799285635
553 1 -0.7435056434 -3.6013223786 -5.2413062603
2522 1 1.1969120214 -6.2670538143 -3.1773452591
5060 2 -0.9859406686 -4.7234039833 -3.057882115
3983 1 1.4467049478 -5.6867889337 -8.5792187024
6900 3 2.3248467899 -3.6902264147 -6.3503294738
455 1 1.7441526444 -6.2287997935 -5.6737704397
6297 3 5.7322665124 -1.8627860174 -2.1077143219
3056 1 2.9969399926 -4.2810760829 -3.0380272063
642 1 4.6335938609 -7.2336659086 -5.8955623429
3738 1 -15.3157127875 -2.1459600038 -1.3266925485
5014 1 -15.5799012814 -1.6825646389 -5.9428653084
8013 1 -14.3701074701 -0.9368589373 -8.7030324378
2736 1 -15.4049858141 0.0818117275 -3.2428142137
3304 1 -13.2867507044 -0.0796615833 -4.6803223264
669 1 -10.0724948537 0.5305451525 -5.2821481182
1988 1 -8.7072219826 0.9101781176 -2.6877081625
1408 1 -7.8465652001 -1.0774627301 -4.4538222473
3300 3 -2.7796196475 0.4510989547 -4.8762856741
3042 1 0.7629671086 -1.72976525 -6.713240998
6445 1 -0.0371296593 -0.0308846081 -4.6394912402
6835 1 2.3458568152 -2.0642936777 -4.1040960147
769 1 0.1074103317 -2.4254750738 -2.4254585142
3736 1 5.4116386796 -0.8577147672 -4.8498718273
2933 1 5.1763200645 0.8728415209 -2.3321655663
2774 1 6.3374219799 -3.8044198995 -3.9919958671
903 1 7.5885163636 -0.3711539874 -2.9570094074
5602 1 7.5344218378 1.7501968145 -5.9768264438
186 1 6.0890041682 -2.5135162656 -7.0362108761
3582 3 -12.24749335 0.2223543559 -6.9057729464
1722 1 -11.9534387073 2.404993765 -5.3407571884
2264 1 -14.5168740835 1.7855877991 -6.5658974948
1417 1 -16.2646406555 4.7110083702 -2.9710516946
1286 1 -10.6787639661 5.5103695463 -6.2745465707
6767 1 -11.6501535125 3.6289886372 -2.9459909598
4108 1 -14.3606531284 2.6484833502 -4.1804050982
3775 1 -12.7208012636 1.3101228524 -2.4993038143
1731 1 -7.8367098882 1.3417622146 -5.5473350648
3933 1 -8.358459932 3.3563864375 -2.6797143432
3065 1 -5.0048518335 1.4387872699 -5.499292808
5865 1 -2.9835422342 2.8062481377 -4.454838609
6780 1 0.0884777296 2.9415137997 -4.6210010605
5499 1 2.3011533362 3.1282328024 -2.7145533255
6961 1 0.5910638504 1.1410536855 -1.9594432344
5274 1 3.6546951967 3.2271131353 -6.3241943282
452 1 5.556446351 3.2262099303 -3.9503833628
2397 3 5.5091528305 5.5046364191 -5.3689222038
93 1 -12.9748825765 5.9934876906 -4.169633505
5595 1 -5.0297472153 -10.8646154492 -17.282022747
7794 3 -10.0645033141 -17.2253489444 -1.5114312559
2376 3 -10.5180873292 6.6237487151 -2.5172897835
812 1 -8.4720847825 5.4524555157 -4.4648550061
6864 2 -8.8210708932 7.8160392733 -4.0534771122
7109 1 -6.4072982955 7.5119826496 -3.5103049362
1991 1 -4.6932423809 -16.1614453478 -12.1300036941
6217 1 -2.0820854347 8.5660819696 -4.4278926974
5908 1 -4.0750671302 6.2185597881 -4.907619379
4807 1 -2.6163986483 7.0614621356 -6.8500250316
6834 1 1.8593765213 5.1370690091 -4.5002567049
2 1 2.1913425614 7.774240458 -5.2144931414
7359 1 -1.348877176 3.4555224257 -2.1702755128
3674 1 -13.9805609066 4.143825555 8.1749141167
7024 1 -7.5017295445 -9.4611904887 -17.0858136637
6222 1 6.6423033617 7.6474173583 -6.5236906164
5681 3 2.5751735415 7.5666455913 -1.3862939067
2846 1 6.4037506192 7.2186404473 -3.6575157048
591 3 7.6475207978 0.8886760101 -0.7659922259
571 3 -15.2606755822 -15.1200933813 -1.5149528166
7437 1 6.2519722929 -5.0170836267 -7.0740661178
6414 1 -13.1554111852 -17.0451140059 -1.4750925211
7299 1 -13.0221107018 -14.1877697897 -2.3779041392
777 1 -10.9763975232 -14.9567636725 -0.5636422027
830 1 -11.6737719019 -13.4199988733 1.8541499019
4114 1 -7.1935205213 -16.0595490908 0.6701479333
6590 3 -8.3904632396 -13.8672194034 -0.2273896186
6863 2 -7.0455284312 -13.5626126471 1.5811520492
6489 1 -5.0465634325 -16.2764232237 -1.4403115844
6772 1 -7.7391738218 -16.2455052386 3.5045865993
1661 1 -6.0277312532 -12.0875776802 0.0458466299
3529 1 8.2093520383 -14.9744375148 6.6279094595
1810 1 -2.9427089179 -11.596729806 -1.496883842
3531 1 -3.7664525995 -14.3293425592 0.2035386444
1197 3 -11.015453495 -17.2567976022 -14.270691908
2207 1 3.3578764264 -16.1525240116 -3.7625247162
5642 1 1.7603167721 -16.577799411 2.1530628967
60 1 7.4055965922 -15.6487126917 0.82761133
7870 1 5.3345866136 -13.9313744194 -0.5138430007
4468 2 7.4622422468 -13.2927004562 0.4411472232
3611 1 -4.7621130311 8.037011626 8.2054868336
6679 1 -15.3898992895 -10.6157233486 0.8955243158
2909 1 -15.8561028241 -13.5514449456 0.4806229924
6738 1 -13.5609125502 -12.4731401334 -0.5784318794
4297 1 -12.7208571595 -10.7116026185 1.6265098834
5277 1 -10.8578113462 -12.2996164384 -1.084506568
3123 1 -8.7859081941 -11.5894137738 0.7124478902
481 1 -6.4703558851 -11.2474512778 2.7491071158
7063 1 -4.7257059303 -9.4791423357 0.5491353933
7187 3 -6.4227958057 -8.731820448 -2.329192932
7937 1 -2.9685998966 -11.3790762741 1.4205719308
5897 1 1.8567205397 -14.0253307203 -4.3676416913
4645 1 -0.2050072362 -11.6975440057 -0.7234866027
1783 3 1.6074882748 -15.0754411967 -1.7806943327