ITEM: TIMESTEP
0
ITEM: NUMBER OF ATOMS
8100
ITEM: BOX BOUNDS pp pp pp
-17.5989711508 35.5844723882
-17.5989711508 35.5844723882
-17.5989711508 35.5844723882
ITEM: ATOMS id type x y z vx vy vz c_atompe
7465 1 -17.3462 -13.8608 -16.5437 -9.36732 1.428 1.91586 -3.41506
6984 1 -16.3637 -16.3827 -15.79 -5.10117 3.61692 -7.18731 -3.85381
396 1 -14.8607 -13.839 -17.2515 3.93924 8.26226 6.76211 -3.73601
1848 1 -13.6067 -15.4415 -15.3745 -2.79478 1.0917 -10.9322 -3.75192
1324 1 -10.9994 -17.2989 -15.7281 -1.68332 3.51118 -10.237 -3.80566
1862 1 -11.4447 -15.2219 -17.3913 -7.31557 -12.1162 1.52041 -3.87534
6898 2 -8.30763 -17.5852 -15.1167 5.34929 -0.279725 2.31542 -4.10342
3184 1 -9.4488 -15.6371 -13.953 7.68443 -0.707337 11.7546 -3.81265
4036 1 -6.53379 -16.2118 -14.0593 5.2748 -0.91462 -2.13429 -3.70545
3202 1 -6.42245 -17.3074 -16.7242 -5.65994 -4.1904 8.13549 -3.79679
680 1 -6.30184 -14.8068 -16.3204 -6.14249 3.18567 6.80995 -3.49053
747 1 -8.87117 -15.8573 -17.3083 3.29216 -0.210377 1.41978 -3.8037
6611 1 -2.48126 -15.4371 -17.168 -0.497563 0.163461 -6.14468 -3.58122
5859 1 -4.27433 -14.5389 -14.9121 -0.149672 -4.494 0.112868 -3.76175
4680 1 -3.8838 -17.4288 -15.3243 -4.76616 2.35505 -1.40316 -3.49658
6321 1 0.80206 -15.6158 -13.9532 0.127805 15.7909 -0.258264 -3.6504
2682 1 -1.97447 -16.2389 -14.1421 7.50693 0.0734401 0.533394 -3.57857
3513 1 -0.0187552 -15.7437 -16.6311 7.17582 4.40152 3.14434 -3.60141
1411 1 4.0056 -15.1494 -14.6186 -5.8763 -4.5046 9.69219 -3.79745
1236 1 1.75677 -14.0205 -16.0887 0.193619 9.14283 -3.36453 -3.6785
595 2 2.19639 -16.3362 -16.0241 7.72097 -2.77402 2.62672 -4.69928
2704 1 6.38653 -14.5373 -16.0572 -1.95297 1.66195 -7.10448 -3.79261
2049 1 8.78985 -13.943 -17.4684 -2.21839 -8.57471 2.36454 -3.70984
2204 1 8.80634 -15.4919 -13.9185 0.0653209 8.48942 1.3791 -3.75471
1073 1 -14.5543 -11.0764 -14.7747 -4.18508 -12.1972 -8.04754 -3.76108
4858 1 -15.5342 -13.4585 -14.1446 4.32725 -4.4417 6.21298 -3.75887
951 1 -17.4352 -11.7356 -15.0978 -9.73887 1.5876 -2.04554 -3.8447
2626 1 -15.807 -11.1402 -17.4903 7.73716 -2.09997 3.91925 -3.75168
5131 1 -11.8053 -13.5428 -14.811 -2.36604 -4.57892 -2.76284 -3.73049
3938 1 -10.8776 -10.9884 -15.701 -2.26842 -0.447038 -2.12369 -3.75083
5702 1 -9.10374 -13.2892 -16.4453 1.47763 -7.71687 3.85217 -3.78309
4317 1 -6.70919 -13.3288 -14.0786 3.59061 3.10014 1.93351 -3.78167
3743 1 -7.95739 -10.6504 -14.8349 -3.86795 1.89893 -2.57155 -3.76701
7803 1 -4.29078 -11.5663 -14.3942 12.0996 -2.97201 -6.08623 -3.72761
3126 1 -3.20885 -12.4322 -16.7772 -6.72209 5.27413 -2.25105 -3.54368
4287 1 -1.48679 -12.7218 -14.441 -3.5667 3.92172 2.41462 -3.77004
375 1 0.319694 -11.568 -16.1791 -7.80319 6.67299 1.97672 -3.75542
6633 1 2.84068 -10.4195 -16.5665 4.0794 0.990938 5.48718 -3.78388
4216 1 3.69802 -12.5137 -14.0359 -0.546708 1.79727 -8.016 -3.81161
4296 1 4.1119 -13.0023 -16.6753 -0.657514 8.07698 -4.39344 -3.81622
2140 1 6.57625 -11.8219 -17.2394 5.91569 -12.286 5.06371 -3.81617
2225 1 -14.5956 -6.78489 -14.2208 -7.84463 6.30687 -7.70449 -3.70497
4480 1 -17.483 -7.14621 -14.3549 14.383 -1.16968 1.24753 -3.75842
4927 1 -15.7794 -8.87174 -16.1447 -2.08141 -3.61549 -10.2342 -3.52592
3840 1 -12.8783 -9.05967 -15.5637 0.428899 4.83709 7.63076 -3.80572
4938 1 -11.4717 -6.82144 -14.0571 -7.19116 -3.31582 -2.53586 -3.48502
7421 1 -9.85489 -6.34112 -15.8691 -3.99276 3.99393 -4.41966 -3.65641
4360 1 -7.04187 -7.63369 -16.2584 -9.93216 0.595978 5.22325 -3.83838
6998 1 -9.61268 -8.83999 -16.7203 -6.16004 -10.8385 -14.8072 -3.71316
5368 1 -4.91478 -9.22936 -15.5335 -4.49322 -0.996396 -2.67124 -3.75876
6014 1 -5.29537 -6.47474 -14.0098 0.432174 -9.28242 5.05361 -3.62812
2476 1 -3.92114 -6.87926 -16.3646 -2.61186 1.69252 7.39688 -3.7145
2875 1 -2.35083 -9.72333 -16.9334 7.99766 12.1977 1.10043 -3.89331
5644 1 -1.83543 -7.59169 -15.2007 -5.69041 3.52884 1.53651 -3.6169
4496 2 0.25703 -6.35193 -15.6177 2.23727 -2.63878 5.25648 -3.7846
3636 1 -0.609491 -9.84016 -14.2937 -1.55652 12.8808 -4.30393 -3.75342
3536 1 -1.04618 -7.29871 -17.573 -4.22191 -0.31557 -10.4795 -3.78889
2442 1 4.97995 -9.71604 -14.4552 1.471 -2.88132 9.84155 -3.7801
1425 1 1.42271 -7.91939 -13.9773 -2.46393 4.18313 -4.55444 -3.87424
70 1 4.9164 -9.11837 -17.225 -12.4962 1.07711 -1.88346 -3.76357
5874 1 4.10465 -7.49809 -15.2653 -11.3052 1.45082 3.04703 -3.77219
6763 1 1.82651 -7.8812 -16.9726 -9.89219 -9.70998 -7.04832 -3.81939
2428 1 7.62933 -9.99424 -15.1638 10.4787 6.15478 -4.87242 -3.83238
4517 1 6.72931 -7.36375 -15.9676 6.20836 -3.91199 0.941095 -3.83511
3392 1 -16.5144 -3.91748 -14.6762 2.78193 1.62524 -9.82412 -3.7057
666 1 -15.8363 -5.77516 -16.6112 0.903871 -0.181462 9.81736 -3.8204
4813 1 -10.4916 -4.14618 -17.5967 -4.9456 -6.69506 -2.39811 -3.6891
3139 1 -11.2698 -2.7813 -14.0922 1.35268 -4.50716 1.90635 -3.69307
345 1 -13.1269 -4.6992 -16.2815 9.8304 -5.72953 2.78345 -3.65399
1015 1 -8.74446 -2.56685 -15.9935 -3.90332 4.97095 -10.6268 -3.75067
5681 1 -7.36298 -4.70163 -14.9488 6.66918 -1.76828 5.78282 -3.81574
3015 1 -3.7509 -4.05942 -17.4567 1.65135 -5.70588 -7.82477 -3.59719
2773 1 -4.79736 -4.01251 -13.9461 3.93657 -5.37734 6.88028 -3.68938
3627 1 -1.81144 -4.8807 -14.8882 -6.2009 1.81835 4.22139 -3.64714
7460 1 0.756988 -3.45332 -15.4199 4.56072 -2.62512 3.47414 -3.65662
2974 1 -1.55847 -3.10185 -16.8626 -3.64443 2.24623 5.07975 -3.6639
3137 1 2.55713 -5.19602 -15.3207 -1.71592 -6.38188 10.6622 -3.73326
6310 1 3.25943 -3.21523 -13.8779 -1.67337 1.84265 0.314976 -3.71403
562 1 8.69064 -2.53182 -14.0067 1.96491 -4.48127 -14.6404 -3.68913
155 1 5.32672 -5.25916 -14.1521 5.34799 1.74271 2.2736 -3.6499
5672 1 6.8014 -4.18383 -16.3964 2.91221 -17.4196 -7.27094 -3.69294
1885 1 8.51945 -5.30191 -14.489 -9.32085 -2.30579 -0.597574 -3.77048
8057 1 -15.4148 -1.24671 -15.4279 -4.10028 -8.03608 -4.95934 -3.72363
5391 2 -17.1341 0.295566 -16.5219 3.13236 -3.86157 -5.82877 -4.57483
5898 1 -15.2791 1.19796 -14.4204 0.842187 2.33946 -0.545478 -3.68751
4327 1 -10.6339 0.0544433 -16.2833 -0.362916 -10.1813 -12.0261 -3.61748
1352 1 -13.0923 -1.18128 -14.5726 -8.26104 4.8241 6.57884 -3.5763
3924 1 -11.5256 1.23263 -13.8431 1.10538 -7.6489 6.87012 -3.80011
1082 1 -7.55754 0.799146 -16.121 -5.89036 -7.19108 -2.24776 -3.74861
2381 1 -6.69331 -1.33773 -14.3691 0.706637 -5.57142 -2.00907 -3.7207
1492 2 -4.78961 0.543682 -15.8548 1.27566 -1.20251 4.16463 -3.51287
1741 1 -4.07103 -1.47115 -14.738 0.417056 5.01752 -8.96617 -3.70706
2628 1 -2.73964 1.26125 -15.4066 10.3134 -3.33755 -3.71716 -3.78341
7760 1 -5.76713 -2.20907 -16.7286 -3.56033 5.39639 -2.21421 -3.78374
5823 1 -3.63542 -0.537293 -17.5455 -0.638884 13.3198 8.94246 -3.80599
4398 1 -0.955122 -1.42199 -13.9767 8.31664 13.0468 0.348687 -3.74719
1483 1 0.26157 -0.796157 -16.207 -11.5167 -1.03587 -3.30535 -3.70559
38 1 3.01837 -1.99591 -16.4383 6.80082 -1.62074 -4.72192 -3.89944
7747 1 3.25747 0.972657 -16.608 15.5727 4.81855 -3.11207 -3.68874
7757 1 4.47323 -0.775439 -14.0296 4.83828 -3.47814 -7.56807 -3.71764
5948 1 5.91698 0.995531 -15.3325 0.784793 -0.643728 2.72177 -3.65177
3833 1 5.92115 -1.47631 -16.1773 -11.0884 5.8716 -7.20888 -3.6715
6453 1 8.57379 -0.0985199 -15.3364 2.5922 4.62647 -0.82437 -3.74977
7470 1 -15.2783 1.69059 -16.922 2.45369 -0.0826046 2.0873 -3.78242
5606 1 -10.7825 2.43864 -15.8586 2.3118 3.23696 1.11262 -3.59417
1362 1 -11.7233 4.99197 -16.3609 6.47395 4.3259 -1.00339 -3.89687
7106 1 -13.3728 2.94378 -14.9185 1.08144 -4.42837 1.59258 -3.77234
5478 1 -6.32364 2.03009 -14.2121 -6.62357 7.33824 -6.17993 -3.6012
7332 1 -7.99862 3.39454 -16.2574 -4.92773 2.46942 -9.53373 -3.74489
4889 1 -5.03501 3.61869 -15.5631 -3.85886 3.03583 -5.35402 -3.60915
5543 1 -1.9569 4.07237 -15.4934 -4.93734 -9.04719 5.51219 -3.84816
8034 1 1.01589 3.88478 -13.934 1.80032 6.4973 3.63035 -3.76879
4068 1 0.793568 1.66215 -15.7908 -3.20336 7.06652 -0.243943 -3.7096
4610 1 3.90333 2.12192 -14.1922 0.764438 -2.96999 -2.5802 -3.7586
15 1 4.84063 4.92697 -16.1425 -0.999765 3.61664 -17.2675 -3.82726
1948 1 2.72705 3.40981 -16.7995 8.48541 -2.69714 -2.13734 -3.70031
265 1 7.07215 3.04963 -16.3492 10.6868 5.87396 -3.66183 -3.77575
1565 1 8.60832 4.5198 -13.8616 -3.70613 -9.56316 1.32558 -3.74369
1660 1 -15.1936 5.36208 -16.5333 0.415227 -2.9324 -2.02331 -3.77141
3494 1 -17.4713 5.57164 -14.2948 -2.63049 0.00588386 -0.036756 -3.75074
1081 1 -14.94 8.47588 -16.5069 3.5258 6.06097 -0.0124452 -3.8641
4949 1 -10.9179 7.1624 -14.4807 -4.99421 6.6509 -6.22103 -3.80787
4487 2 -13.2067 6.97289 -15.8687 -3.88124 -0.46183 5.31698 -4.04547
4377 1 -13.596 5.37209 -13.9521 -12.8083 3.49352 2.02773 -3.85017
1858 1 -7.9358 8.43048 -16.5129 8.51854 -3.59042 4.79748 -3.80571
1272 1 -9.07544 5.81978 -16.117 9.30032 3.85403 11.9352 -3.67498
6270 1 -6.52231 6.33846 -14.2147 -5.95871 -6.98212 -0.643648 -3.69635
3443 1 -2.67349 8.76554 -15.5138 0.136693 5.24139 -8.83949 -3.72278
2723 1 -3.51387 6.14676 -14.6565 1.70165 0.50123 11.2091 -3.75494
6546 1 -4.99957 7.11172 -16.3407 -8.1908 -2.67323 4.77302 -3.68772
4529 1 0.797109 5.27581 -16.4668 8.97431 -5.17004 6.33404 -3.7502
392 1 -0.716008 6.55159 -14.396 -5.35269 -5.94638 -5.39139 -3.86336
3476 1 0.315536 8.53436 -16.2121 6.84399 -7.39535 7.10869 -3.78463
4782 1 -1.74502 6.62261 -17.2438 7.40086 4.20642 9.80873 -3.8934
5572 1 2.59902 7.04096 -15.6649 2.62674 -5.79299 -4.11805 -3.67801
7557 1 4.84197 7.53429 -14.8272 7.75883 -1.02086 3.08644 -3.67296
5798 1 7.50837 5.94424 -16.037 9.19607 0.0961942 -6.04566 -3.77209
4642 1 7.6891 8.84445 -14.8731 -8.10684 -0.0846494 9.15245 -3.8771
6592 2 6.60055 8.79764 -17.1323 1.74261 10.1199 -2.55947 -3.6827
1763 1 -15.1212 -17.1669 -13.3906 -4.12551 0.867736 5.87487 -3.75229
2793 1 -16.4379 -14.9465 -11.6544 6.47223 -0.312812 -10.3335 -3.79357
3634 1 -13.6487 -15.1198 -10.6553 8.61843 -4.01245 2.19321 -3.83441
2252 1 -12.7043 -15.739 -13.0202 -3.39459 0.508105 2.9817 -3.72131
4230 1 -11.0541 -13.8274 -11.5411 3.45655 -9.14842 0.55337 -3.8358
1768 1 -11.4793 -17.3405 -11.2263 3.6433 7.76923 -4.8659 -3.78757
558 1 -7.92544 -14.5638 -11.8681 -5.80558 -3.54521 -2.28741 -3.84661
1655 1 -5.30869 -15.8535 -11.9745 6.30391 4.82743 1.77557 -3.75015
4714 1 -3.42028 -13.802 -12.0104 -1.99128 -8.07951 -5.41708 -3.55476
2092 2 -4.56151 -17.5067 -10.5574 -8.55981 5.64065 -7.67257 -4.23965
6065 1 -2.3319 -16.2484 -11.5785 3.10377 6.73643 -0.193536 -3.65641
8090 2 -0.869034 -14.5844 -12.372 4.51498 -2.25666 -1.62227 -4.58413
5941 1 0.345836 -16.1793 -10.8651 12.0414 8.21157 -5.83133 -3.75586
7701 1 2.6887 -14.5881 -11.7691 2.83539 -4.84647 -9.82047 -3.79598
5635 1 2.73749 -17.5264 -10.7135 5.20634 8.32105 10.4727 -3.77836
6494 1 5.11459 -16.84 -12.704 3.12907 -3.40695 -1.44235 -3.71659
7916 1 5.66716 -13.9444 -12.1342 -5.49284 7.23655 -3.51682 -3.67796
4412 1 7.888 -14.8856 -10.3504 -0.0438843 4.04203 1.25805 -3.80801
5800 1 7.05791 -17.5974 -10.3359 -0.131218 8.50145 1.23167 -3.85745
3113 1 -17.5699 -12.0339 -12.21 -8.37661 -2.5501 2.90525 -3.80489
7725 1 -16.305 -12.8695 -10.2858 9.98411 10.3319 4.11444 -3.56742
4243 1 -14.4043 -10.1641 -12.0369 -1.65467 0.20059 2.49383 -3.76596
3040 1 -13.5375 -12.9541 -12.5854 -3.83711 5.2228 -8.63841 -3.77982
3416 1 -11.323 -11.054 -11.7348 -11.9078 4.14596 1.73778 -3.87399
3360 1 -9.56121 -12.8944 -13.7194 -5.67573 -1.89047 -1.99451 -3.7867
4686 1 -8.74768 -12.1373 -10.6311 -1.30114 4.11845 -6.61103 -3.8261
1509 1 -5.9744 -12.9207 -11.346 3.48772 7.32409 1.98269 -3.73961
7943 1 1.01451 -12.9794 -13.466 -3.58925 -1.29829 -4.46823 -3.83111
2139 1 -1.98974 -11.9473 -11.7679 -2.31936 0.217093 1.5347 -3.48183
7112 1 0.501834 -13.2017 -10.5083 7.59921 -9.46094 -2.08307 -3.76983
1591 1 0.389317 -10.7334 -11.6861 2.38162 -1.77056 -1.49844 -3.74395
5095 2 2.54614 -12.1259 -11.483 -2.8166 -2.17663 0.00219528 -4.48544
7660 1 4.62317 -10.6255 -11.7772 -1.93559 2.44416 -4.97251 -3.78076
6944 1 2.41319 -10.2629 -13.5001 -1.26608 -4.59366 -4.70856 -3.79616
7359 1 7.04174 -12.0823 -10.8456 2.32665 7.13092 4.14614 -3.79325
2084 1 7.40378 -12.8085 -13.6004 -3.92858 5.4419 -8.69787 -3.59546
7642 1 -16.6366 -6.99457 -11.9013 -0.845938 0.829747 7.48118 -3.76398
7518 1 -14.274 -8.23653 -10.0907 -6.04008 -3.21967 7.00324 -3.7724
8046 1 -16.7435 -9.68486 -13.3299 0.583197 -11.0197 2.05558 -3.83111
4637 1 -12.276 -8.42615 -12.1538 7.91741 -5.30197 -1.0787 -3.65469
2051 1 -10.5185 -9.08826 -13.703 5.07236 -6.17458 -5.69227 -3.65779
7389 1 -13.6722 -6.2586 -11.9178 0.373579 5.87786 4.60232 -3.49806
3980 1 -11.8896 -6.43088 -10.3322 8.55684 -4.32768 0.959877 -3.64184
5238 1 -7.42542 -7.68162 -13.3395 5.89198 -6.27929 -5.54638 -3.67448
3192 1 -8.40512 -9.98371 -12.1406 -6.94904 3.16814 -0.360997 -3.79415
7272 1 -9.50313 -7.22923 -11.5805 3.14487 -1.2182 -10.1287 -3.79082
5423 1 -3.09577 -9.34117 -13.5803 -2.20161 3.68853 -1.04642 -3.67464
1669 1 -5.30899 -8.89391 -10.1919 0.812012 6.31948 -3.55271 -3.65405
8026 1 -5.92101 -9.84065 -12.762 0.606058 -2.54916 0.0542639 -3.71299
3374 1 -2.5393 -9.59934 -10.6532 -5.62551 -3.57295 -3.07924 -3.70996
3999 1 -4.80384 -6.69371 -11.4511 1.07695 0.00561979 -5.16968 -3.53594
1554 1 0.808172 -7.17444 -11.4654 5.88203 -6.06222 4.77978 -3.57356
738 1 4.56387 -7.91576 -12.5375 -3.52071 1.42801 3.1072 -3.68012
2355 1 2.70471 -9.53332 -10.5967 -7.56287 0.379712 -1.75972 -3.76354
3401 1 6.87082 -7.19747 -11.9842 -1.76934 6.48905 -3.42358 -3.59816
2021 1 6.91813 -9.60473 -12.4754 -3.22895 9.79184 -5.64504 -3.71295
1462 1 8.8228 -8.00385 -13.7529 -1.62306 2.96752 -12.6135 -3.6127
867 1 -15.8866 -4.14213 -12.3498 0.817816 -4.35669 -7.89377 -3.73206
477 1 -17.0423 -2.80833 -10.0794 -12.4539 -17.9547 0.237632 -3.71302
4934 1 -13.4356 -4.58166 -13.6834 -9.03832 3.21695 7.82789 -3.63786
7914 1 -11.7611 -4.11246 -11.6821 -2.15411 1.9139 -4.07781 -3.83942
3901 1 -7.90704 -3.47881 -12.5224 -12.7836 -0.224866 -2.39258 -3.73081
5639 1 -7.49092 -5.84099 -11.6747 -2.01662 -1.56571 -2.31137 -3.65017
5759 1 -9.87383 -5.18144 -13.2787 -3.15382 9.43981 1.12867 -3.70124
8042 1 -2.51126 -6.18419 -12.7092 -4.21922 -10.5382 0.153075 -3.65261
977 1 -5.47469 -4.45938 -10.5583 -8.91651 -6.65099 -0.815349 -3.70682
6626 1 -2.82049 -2.62004 -11.7375 7.3411 1.71925 9.03336 -3.73176
1119 1 0.0215619 -3.79431 -10.9059 3.8054 -9.13364 -14.9538 -3.7425
2037 1 0.332492 -5.2278 -13.3309 3.85817 -3.55779 3.51995 -3.77009
3241 1 2.79409 -6.04485 -12.3551 -7.2605 -4.43209 -5.50432 -3.61841
5491 1 3.03987 -3.77931 -11.0391 -3.8623 -6.57409 4.2851 -3.7508
3488 1 5.64196 -5.14864 -10.5052 -4.82265 6.9875 -1.0403 -3.63465
2062 1 7.42829 -3.17169 -10.8066 4.28287 -2.45173 -9.36017 -3.67297
4870 1 -16.3787 -1.59741 -12.8437 4.16603 -8.68687 2.28337 -3.79444
1882 1 -16.2898 0.0543928 -10.5127 -0.777139 -1.91518 -2.69947 -3.69639
2392 2 -11.6163 -0.861143 -12.3818 -8.09906 -4.78012 -7.80048 -4.26749
1296 1 -13.7842 0.283745 -11.7281 5.63908 0.63179 -11.5253 -3.79754
1103 1 -13.5934 -2.14282 -12.1649 -5.16273 5.59826 -12.5099 -3.6494
1890 1 -11.8661 -1.62295 -10.1087 -6.42106 -5.92472 -12.5815 -3.73945
158 1 -10.7306 0.78046 -11.1421 1.42077 -5.81433 4.5535 -3.71882
5733 1 -9.34238 -1.826 -11.3764 7.99015 0.550725 8.74211 -3.61371
4948 1 -9.2151 -0.531232 -13.7976 -9.06065 1.292 -1.1854 -3.87485
4930 1 -7.84573 0.120346 -11.2746 0.65262 -4.50257 2.59916 -3.67651
2673 1 -5.49311 -1.68761 -12.0579 -6.35678 -3.83005 -0.274426 -3.82456
7240 1 -3.92697 0.512994 -12.9203 1.22506 -2.00406 -4.23627 -3.72999
5536 1 -5.10155 0.408282 -10.5758 6.49875 -6.88568 4.69671 -3.73168
2753 1 1.29267 -2.12726 -12.2991 -9.42306 -0.0871379 2.27167 -3.6938
1117 1 -1.89793 -0.0484044 -11.4937 -8.96055 4.76207 -3.27054 -3.61507
5492 1 0.424124 0.921584 -11.0697 -1.21884 7.46013 1.85015 -3.78687
3156 1 5.1224 -1.85076 -10.6446 -2.63239 1.15719 9.14158 -3.77426
3467 1 1.65033 0.186203 -13.6639 -5.65493 0.0653344 -4.80777 -3.85979
5379 1 3.07986 -0.0481443 -10.8482 -2.81303 9.44835 2.90552 -3.81975
5432 1 7.19858 -0.789141 -12.2837 4.93848 -0.0177744 -13.3525 -3.71631
2024 1 5.44775 1.24129 -12.1857 -5.34566 5.93675 7.99328 -3.83016
845 1 -15.6335 3.77976 -13.6687 0.579468 3.88795 -5.28227 -3.778
6600 2 -17.0664 4.17033 -11.7026 -5.42923 0.37559 2.3831 -4.22616
1563 1 -15.9138 2.53274 -10.8646 2.60445 -4.76256 -5.03064 -3.73218
2744 1 -14.5856 5.12233 -11.1913 12.7311 -4.44941 -5.45436 -3.83406
3229 1 -10.8138 4.4782 -13.1988 10.5183 -1.05689 0.651727 -3.74269
6277 1 -12.7985 3.05436 -11.6716 -4.61842 -6.35807 -3.7572 -3.76196
6224 1 -10.621 4.97406 -10.6365 -4.2313 7.06029 15.6672 -3.68688
4114 1 -7.73362 2.94418 -10.9887 -7.36147 -1.27123 -8.99468 -3.71706
326 1 -8.91473 2.79375 -13.4882 -1.34621 2.49895 7.9985 -3.76003
3560 1 -6.03786 5.0573 -11.8963 -0.867579 3.00717 -4.31425 -3.60827
5685 1 -3.85197 3.45914 -13.2567 8.51995 2.16191 -10.0367 -3.71939
4132 1 -4.59353 3.20693 -10.7911 3.98019 -0.55178 2.15208 -3.6353
3490 1 -0.656628 1.80234 -13.6066 -1.16821 0.453234 7.66633 -3.84872
5424 1 -1.89742 2.41138 -10.8865 6.75869 -4.60427 1.07529 -3.76529
5978 1 -1.69037 4.67503 -12.7128 -8.60072 -0.341793 8.70643 -3.78658
3035 1 0.21903 3.89713 -10.408 -2.85448 6.92021 -6.12937 -3.83777
2750 1 2.34464 2.81067 -11.9622 1.0542 -2.96276 -1.32193 -3.79567
5613 1 4.20311 4.67902 -13.4738 8.83179 -3.05189 2.78195 -3.8005
779 1 4.36047 4.1144 -10.9014 -4.89972 1.5688 2.92448 -3.71749
6442 1 8.88163 1.48898 -11.2408 -4.09799 -1.7072 -1.06998 -3.61321
3081 1 6.99715 3.57693 -11.956 -0.593892 1.207 -2.74469 -3.88706
3400 1 7.92906 1.69553 -13.7039 -13.2347 -5.5172 -1.09485 -3.65522
4901 1 -15.6203 7.25319 -12.3936 -2.84233 -12.4089 -4.99122 -3.74781
2279 1 -13.5622 8.08274 -13.7865 -0.016005 0.222717 3.39833 -3.81025
4653 1 -12.3742 6.7018 -11.3115 -5.69949 -5.06227 -0.192291 -3.77297
2028 1 -9.38026 8.21334 -12.5095 0.475186 -7.3643 -2.76913 -3.6218
6041 1 -8.39119 5.55949 -12.4738 -8.32574 -0.473113 -0.320263 -3.6685
384 1 -6.66405 7.52672 -11.8406 4.27507 -6.89578 2.82133 -3.5593
4596 1 -3.51789 6.19688 -11.5232 6.76889 -2.49707 10.7895 -3.9086
4953 1 -4.8236 8.8775 -10.6977 1.69893 8.22106 -0.875559 -3.88004
3297 2 -2.44033 8.5495 -11.2657 6.82478 -3.53411 5.68608 -4.01981
3034 1 -3.79991 8.21809 -13.2052 4.61948 1.32944 -2.48299 -3.70431
3907 1 -0.604611 6.74616 -10.9187 -4.2133 -1.08885 4.39541 -3.86029
1442 1 1.93202 6.78436 -12.8486 7.19181 1.07697 -3.60024 -3.77096
6465 1 4.75309 6.70906 -11.4205 -2.5709 2.79721 -2.0152 -3.6487
975 1 3.6517 8.94547 -11.4794 3.83197 0.268921 -0.469712 -3.65152
1977 1 8.96844 5.58649 -11.2779 4.72603 -0.508902 0.944494 -3.85354
35 1 6.54933 6.03042 -13.0621 2.08083 -3.49237 -2.39764 -3.7457
1030 1 7.49106 7.86604 -11.1166 6.54214 -2.83695 -0.482337 -3.86138
6593 2 5.94532 8.60518 -12.8044 5.47786 3.97343 -2.17902 -4.33263
1364 1 -15.6337 -15.3396 -8.91429 -11.6111 -1.57134 -0.556868 -3.82522
2738 1 -16.3902 -14.2235 -6.43285 1.53086 1.65466 0.833997 -3.52225
539 1 -11.0398 -15.4733 -9.01306 -0.916449 -1.9087 2.27578 -3.65687
7789 2 -13.6039 -16.515 -8.47966 -3.10471 0.14234 4.52657 -3.94475
7532 1 -11.8413 -16.6683 -6.82658 2.30536 0.12399 8.6846 -3.75937
1148 1 -8.93248 -16.4231 -9.63244 12.2543 -1.33716 4.52239 -3.41147
250 1 -9.62531 -14.8116 -6.6686 -8.22782 -2.41399 1.05651 -3.87839
6507 1 -7.83968 -16.5766 -6.25531 -0.650461 0.245605 8.15722 -3.82917
3102 1 -7.31557 -14.4802 -8.96449 -3.84895 1.3267 -9.13793 -3.87056
1809 1 -6.65525 -17.0783 -8.85855 5.14664 4.72934 -2.5398 -3.54155
728 1 -3.82042 -15.5642 -9.28965 3.7408 -0.00394645 3.74863 -3.80724
3949 1 -5.14468 -16.1752 -6.97874 -5.43955 -4.70958 6.71943 -3.7969
4059 1 -0.75173 -16.9194 -8.62717 3.67936 -6.27039 1.86837 -3.72174
7310 1 -1.77533 -14.1643 -9.59705 -2.98751 -10.9994 -0.140927 -3.67281
7882 1 -0.354537 -15.0484 -6.79878 -0.92769 6.50683 0.0744033 -3.70437
2556 1 2.15477 -17.3897 -7.58495 1.19842 -9.71155 0.943784 -3.87728
7965 1 4.96206 -15.5978 -9.73208 -1.83779 -3.29224 -4.71519 -3.83468
1702 1 1.83857 -14.9707 -8.90794 3.80441 -0.817048 3.46243 -3.75273
6652 1 3.96295 -14.8515 -7.42421 -5.19164 -1.39399 17.8148 -3.81091
3953 1 8.34821 -16.2404 -7.84701 -4.85457 -7.65257 9.4419 -3.82529
1829 1 5.91923 -17.1265 -7.02452 -2.5034 -5.2145 17.9453 -3.79957
2923 1 -16.0103 -11.9717 -7.93676 -11.4125 0.672639 15.8136 -3.82101
6257 1 -13.4325 -13.7995 -7.42089 -0.0210743 -10.5062 -2.17575 -3.67294
2126 1 -13.7182 -12.4478 -9.56578 3.81032 -2.50357 10.028 -3.80236
7750 1 -10.9222 -12.2738 -8.9406 -2.19657 -1.6763 -2.36122 -3.88077
900 2 -12.5076 -11.5505 -7.33662 5.64025 1.61703 3.21202 -4.13036
7397 1 -9.30609 -10.096 -9.16741 -9.02922 6.29497 11.6511 -3.66187
7576 1 -8.25214 -12.3042 -7.5167 3.71483 3.74253 -5.24747 -3.88709
4352 1 -6.28449 -11.3974 -9.10533 2.88834 -3.79998 4.20423 -3.72897
2417 1 -9.87338 -10.5091 -6.55871 -2.03278 -5.32806 2.2906 -3.80644
2530 1 -4.94223 -13.1997 -8.21271 -1.83315 -1.54843 2.84149 -3.62315
4729 1 -3.86665 -10.1996 -8.15644 -2.71381 6.4794 -2.06144 -3.90937
2831 1 -2.55985 -13.112 -7.40109 -2.73562 0.643248 -1.46154 -3.73121
438 1 -5.8853 -11.2268 -6.39503 3.62522 18.237 -0.466194 -3.79099
5945 1 -1.25634 -11.3202 -9.27821 13.1122 1.6733 1.44053 -3.69777
5087 2 -0.102451 -12.9984 -7.95608 -1.59556 5.37307 -2.12156 -4.95834
5944 1 -0.101085 -10.8483 -6.79964 -2.80661 0.0787041 5.1276 -3.74659
5907 1 3.73551 -12.764 -9.72888 3.69876 4.82941 -1.29485 -3.64489
5334 1 1.57733 -11.6388 -8.79079 3.4096 -3.52295 5.77805 -3.64405
7954 1 4.06224 -11.7879 -6.69879 -3.0006 -1.93108 -2.15058 -3.76846
3313 1 6.39303 -13.6058 -8.38192 -2.87117 7.01983 1.10804 -3.89972
5927 1 8.61806 -11.3353 -8.41559 -5.45451 -9.11513 -10.3661 -3.75366
2036 1 5.42684 -11.0058 -9.0214 -3.96381 -3.70874 -4.5227 -3.76331
7336 1 -16.5879 -9.99811 -9.99347 2.0127 2.92248 -4.26313 -3.81116
1765 1 -14.1959 -9.98283 -8.02738 -2.86074 -12.199 -1.36145 -3.72091
6768 1 -16.2138 -6.76974 -6.48364 6.19032 6.62062 -1.77638 -3.65741
7334 1 -15.9153 -6.24353 -9.0345 5.16165 6.17081 -0.699088 -3.76385
5232 1 -13.1173 -7.12079 -8.08002 -11.9657 1.20613 -7.09248 -3.71801
348 1 -12.0307 -9.73859 -9.36093 -4.49008 -0.653741 2.09099 -3.88906
2636 1 -7.76667 -8.38897 -9.97327 3.70536 -1.06546 -12.3706 -3.64936
5412 1 -7.50542 -9.18559 -7.32169 4.23309 12.5571 0.363379 -3.79888
1963 1 -9.87389 -7.36054 -8.76039 2.67937 5.70094 -10.5287 -3.74062
6445 1 -3.32737 -7.29007 -9.54889 -4.647 4.71494 3.09487 -3.70273
1682 1 -4.47001 -7.96016 -6.53462 -7.55152 -7.01314 -0.0431919 -3.7735
4580 1 -5.81531 -7.10093 -8.4733 3.01405 -3.88038 -1.55935 -3.70453
82 1 -1.70329 -8.63632 -7.28162 8.19392 -1.40319 -3.07784 -3.89112
7528 1 -0.497934 -6.40811 -9.27075 -3.50555 -3.6139 2.64832 -3.66429
4640 1 0.0686537 -8.78672 -9.58214 6.06633 0.788906 0.115157 -3.72085
3328 1 5.08185 -8.03113 -9.79266 -0.311829 -1.36791 -0.47342 -3.89047
554 1 2.91693 -9.12076 -7.8589 5.28566 -6.43913 -6.32978 -3.75411
4138 1 5.03297 -7.89287 -6.85742 7.20821 -2.79157 9.67243 -3.62946
3058 1 2.30468 -6.74482 -7.66199 -0.148922 -5.00097 2.43111 -3.58252
7712 1 7.68962 -8.92963 -9.03965 -10.5502 -0.504112 -1.17185 -3.74233
3890 2 8.60109 -6.75325 -7.60481 0.161015 -1.49083 -7.20382 -4.14512
4218 1 -14.4202 -5.04898 -6.33903 6.10682 -3.29116 7.55232 -3.72113
1674 1 -14.0231 -3.87403 -9.82612 9.06926 -1.85633 -2.14906 -3.88354
1257 1 -15.8276 -3.07794 -7.83306 0.140073 -6.66669 -0.376452 -3.76178
5374 1 -11.8544 -4.63491 -8.03633 9.78895 8.83358 -2.83757 -3.82448
3788 1 -7.2064 -2.51184 -9.81534 12.153 -10.0611 -1.38016 -3.76328
1688 1 -9.64659 -3.87905 -9.80594 2.96969 -8.53051 7.40857 -3.74739
1517 1 -7.66123 -5.22975 -8.89266 4.44252 17.0432 4.56958 -3.76015
1836 1 -7.84042 -3.89875 -6.25222 9.96187 -5.47053 -8.39512 -3.72838
130 1 -5.30016 -4.88899 -7.04894 0.014713 -1.11193 1.6738 -3.7684
2369 1 -2.58731 -5.54856 -6.93685 -1.36577 3.25825 -0.722421 -3.71864
6518 1 -2.47376 -3.08359 -7.12295 -3.749 -2.80124 -4.43366 -3.66802
4816 1 -2.35059 -4.71784 -9.73884 -1.68769 5.36952 -0.201971 -3.76221
1449 1 0.0717663 -3.99774 -7.80893 -0.55116 -7.27855 -3.94479 -3.72587
7133 1 -0.137353 -5.95695 -6.39277 -4.01112 -7.2515 -3.17547 -3.66218
3441 1 3.65105 -4.93813 -8.72127 10.6833 0.124274 -7.12887 -3.58789
5777 1 2.35148 -4.38744 -6.28527 4.74689 -3.73714 7.18312 -3.82136
1845 1 8.70007 -2.5356 -8.47153 -0.0788901 -0.214527 12.2983 -3.5997
6742 1 8.80762 -5.57515 -9.68215 -4.95802 -2.84351 -5.93902 -3.77928
5181 1 6.51096 -5.84648 -8.2344 0.945686 3.04135 -5.08013 -3.72198
4958 1 6.45109 -2.71756 -7.74779 0.979173 2.32118 -3.06153 -3.56851
6939 1 -14.2905 -1.22111 -9.22015 -1.78317 -10.828 -7.35224 -3.78721
3045 1 -16.258 1.26544 -7.90597 -4.92702 8.34461 4.36789 -3.83064
8094 2 -14.5171 1.14711 -9.55393 1.52959 0.0729713 2.43104 -4.40535
5105 1 -12.0727 -1.88052 -7.39855 -2.94264 -6.8156 4.71054 -3.69954
7834 1 -10.6276 0.488171 -7.43965 -0.0719234 -0.812987 8.51263 -3.87745
1966 1 -13.6091 0.856765 -7.21374 5.37272 -3.45955 4.97314 -3.91291
4014 1 -7.04157 -0.672566 -6.20575 -2.74381 8.62164 5.37501 -3.63113
6528 1 -9.41554 -1.97802 -7.38647 9.04557 -7.49653 -2.06247 -3.69287
6800 1 -7.96482 0.415247 -8.54421 -6.85603 -2.27629 -6.59077 -3.82482
5270 1 -5.1223 0.490157 -7.80299 4.37459 -7.55358 -4.18905 -3.73075
5727 1 -4.23658 -1.74525 -9.12266 -7.67342 -0.834296 -10.2541 -3.73111
7366 1 -5.11346 -2.35756 -6.47495 3.28129 -3.74383 -6.54344 -3.61903
1192 2 -3.23267 -0.739587 -7.15361 -6.72509 3.61909 -2.67737 -4.74626
1269 1 -2.5721 0.272393 -9.05396 -1.14625 -5.37063 0.969514 -3.65553
6621 1 -1.42281 -2.07909 -9.44134 -7.01529 3.55727 -1.14041 -3.74132
4590 1 -0.539124 -0.685867 -7.02648 -4.65242 -9.69266 0.628696 -3.8305
1868 1 4.53313 0.110494 -8.56598 -3.3431 7.90173 -5.29685 -3.70773
6078 1 3.91669 -2.14795 -7.64499 1.2802 11.0324 -7.01076 -3.76994
139 1 1.70321 -2.12171 -9.4323 -1.53199 5.49653 -2.20851 -3.78625
4198 2 1.5102 -2.25297 -6.97697 -3.26933 -1.35066 -0.560725 -3.89047
1047 1 1.8477 0.142777 -8.18721 -1.40353 3.57605 -3.14537 -3.75341
4071 1 7.29909 -0.101988 -9.11355 -1.97166 -4.8773 2.90687 -3.97516
6116 1 -14.4214 3.89158 -8.66208 9.22171 -12.129 0.39281 -3.73139
4282 1 -16.3721 4.04413 -6.95404 0.0918495 -1.81642 9.49049 -3.81579
1827 1 -12.1097 2.28815 -9.08679 -1.23864 -2.16831 2.3303 -3.76767
6667 1 -13.6916 4.71989 -6.36936 10.8969 -8.49427 6.06811 -3.63485
7887 1 -7.48627 5.11139 -9.68208 -3.31092 -7.13549 -7.37507 -3.77351
4951 1 -9.58042 2.53965 -8.88701 -4.85689 1.03631 0.10702 -3.62775
6169 1 -7.31134 3.10651 -7.88825 -0.710495 -2.41214 -5.94129 -3.73217
6410 1 -2.79147 1.59913 -6.22908 4.00596 -1.20737 -15.5859 -3.79514
4153 1 -4.12651 3.48488 -8.25503 -0.460508 -2.66904 2.86309 -3.68352
1921 1 -1.42405 3.90957 -6.40574 -3.16919 2.20278 -1.45335 -3.77936
4021 1 -1.87686 4.88155 -8.92608 -10.4761 8.70713 16.8628 -3.81617
4792 2 0.817954 4.51847 -7.94886 -2.92773 -1.25856 0.201936 -4.19666
6545 1 -0.0251549 2.36416 -8.11733 -4.91889 -10.0034 -1.86474 -3.81522
7043 1 2.68516 2.97525 -9.29301 3.33857 -7.5212 -7.04017 -3.82919
7819 1 5.15932 3.86778 -7.61421 -5.74319 8.1504 2.29136 -3.76193
6260 1 2.23732 3.32149 -6.37901 -13.3475 -2.94143 9.83604 -3.85754
1601 1 8.72462 3.39584 -9.62414 1.05609 -4.54912 4.63687 -3.72644
7899 1 5.91861 2.3411 -9.60477 -4.76383 -0.236469 10.6361 -3.75173
7926 1 7.90941 4.36889 -7.12724 -0.749059 -12.6572 -4.9654 -3.8197
5101 1 6.32192 1.44514 -7.1766 1.08036 8.15355 -9.41351 -3.80103
169 1 -14.7335 7.17757 -9.39243 -5.19015 -8.12209 1.9465 -3.7698
1128 1 -16.853 5.48569 -9.64687 1.74229 2.86992 2.00593 -3.81994
4728 1 -16.2461 7.10256 -7.16193 -1.28196 2.44903 -6.42593 -3.83205
2768 1 -16.4724 8.95577 -9.90738 5.16328 -6.83644 -7.1409 -3.77376
7333 1 -13.666 7.19943 -6.37936 2.38832 -2.49145 0.00912904 -3.71811
5369 1 -11.9119 5.30111 -8.28047 -5.45657 4.28971 -4.24752 -3.76116
970 1 -12.4442 8.68759 -9.28979 8.08464 5.89251 -3.85051 -3.82813
2269 1 -11.1365 8.04101 -6.96536 0.955228 0.18405 10.1046 -3.84613
2504 1 -9.55543 5.46528 -7.03982 -7.67908 -6.59533 5.09693 -3.75472
5516 1 -7.24799 7.46989 -8.10632 2.04923 7.91994 1.84196 -3.61377
6018 1 -6.79212 5.66192 -6.44913 8.72875 -0.609872 6.05268 -3.7388
535 1 -9.75521 7.18804 -9.16444 5.68824 -1.75195 0.668515 -3.83075
6185 1 -2.41588 7.68407 -8.78907 -0.421134 0.978024 -5.38419 -3.93026
6520 1 -4.99277 5.79553 -8.78998 -0.497663 1.12359 -0.524197 -3.81458
8070 1 -5.03751 8.41755 -7.79015 7.87462 0.37572 -1.47423 -3.62098
3240 1 -1.54713 6.77668 -6.24497 6.35076 -6.48107 -2.91781 -3.81779
2952 1 0.157626 6.6886 -8.3524 9.55218 0.946346 -4.49224 -3.62652
370 1 2.15996 5.89785 -9.99048 7.36865 -12.2639 -2.4318 -3.83801
7936 1 1.56744 8.59624 -9.08654 -1.34573 0.219431 -0.147483 -3.62199
5786 1 3.10231 5.86696 -7.19818 -1.53067 3.20732 7.8425 -3.62095
2721 1 4.31619 7.49234 -8.65874 1.40033 2.27391 5.08688 -3.72437
1640 1 6.76526 5.68037 -9.44624 -0.0903491 5.44891 5.01927 -3.93221
6938 1 7.46663 7.08597 -6.99931 -4.37447 4.42559 7.367 -3.74157
1854 1 -17.046 -16.7135 -5.08876 -4.06339 5.63529 1.15565 -3.64058
6701 1 -14.1607 -16.0785 -6.0414 -8.88535 -0.757492 3.74152 -3.77277
7849 1 -11.4429 -15.2178 -4.51746 -5.20113 -0.406601 7.49914 -3.77248
6490 1 -13.4799 -15.6257 -3.18977 8.33158 8.22403 -3.25668 -3.66365
5337 1 -8.35125 -15.1216 -4.02073 -7.08498 6.43069 -4.90572 -3.86503
2801 1 -6.83085 -14.0866 -6.07116 -6.01138 9.92169 6.94894 -3.85963
1982 1 -5.53108 -15.6655 -3.77096 4.74055 -0.439153 -0.877138 -3.92207
4840 1 -2.92357 -16.2152 -2.81829 -6.20726 8.70505 -4.96129 -3.76462
4472 1 -2.58965 -15.379 -5.30874 -0.487435 -17.3034 -13.1053 -3.78364
2563 1 -0.879432 -17.3518 -5.87177 1.82259 -3.97376 16.1939 -3.82848
4525 1 -0.612986 -15.3463 -3.52242 8.19447 -1.25168 12.3626 -3.69553
5611 1 2.08266 -15.704 -5.234 8.46489 -9.43769 -1.78556 -3.80401
478 1 2.35925 -15.5953 -2.47854 -1.98528 7.77096 -3.91701 -3.71835
5076 1 7.8421 -16.7356 -4.94153 -1.6072 6.36865 5.33687 -3.78708
3052 1 8.72803 -14.08 -4.51836 -2.97512 -0.949084 2.40024 -3.84552
4842 1 5.96876 -14.4045 -5.55239 5.20245 6.131 0.450666 -3.81954
5836 1 5.30717 -15.4158 -3.08802 2.84115 -7.19607 -0.205239 -3.65028