ITEM: TIMESTEP
0
ITEM: NUMBER OF ATOMS
8100
ITEM: BOX BOUNDS pp pp pp
-17.7005660804 36.0439747565
-17.7005660804 36.0439747565
-17.7005660804 36.0439747565
ITEM: ATOMS id type xu yu zu
5575 1 -70.1251 91.8774 91.4811
2657 2 39.8607 91.7583 91.7524
3388 1 148.742 39.7041 -14.8292
2951 1 96.1793 91.829 -16.6737
1242 1 147.479 39.7111 90.0805
3363 1 -116.803 145.209 -67.8553
522 1 -115.711 92.8173 -16.3206
618 1 -115.391 36.1226 -16.0026
7783 3 101.367 -15.8955 -14.2187
4678 1 158.094 92.2473 37.6952
849 1 -166.526 -16.9439 36.5654
5200 1 48.4766 39.576 -71.0262
5173 1 -54.0586 -70.594 145.322
2418 1 -53.5923 -14.0897 90.5368
7354 1 1.64029 147.018 -14.8024
4930 1 -49.628 92.243 38.4151
5959 2 1.67423 -15.9543 -70.1698
6221 1 57.5743 -16.7013 -17.5223
5098 3 -46.9289 146.612 39.4109
5560 1 -101.754 -14.0829 -124.556
4121 1 62.9129 38.2495 -15.7997
7296 1 60.5675 -70.4022 144.071
7558 1 -122.55 39.9105 -68.3553
1268 1 93.3875 -64.6704 91.7083
6409 1 -123.828 -12.0011 -70.0968
3677 1 -64.7841 -10.18 37.6478
6424 1 -65.0417 40.9815 90.974
4976 1 -62.4596 149.124 -16.6188
7325 1 -7.42761 150.976 146.285
6598 3 47.5088 -10.6069 -71.2722
3312 1 47.8455 94.8039 92.3477
7001 1 -4.694 97.2726 254.17
4558 1 -3.52719 -65.6051 -16.5526
2911 1 105.96 -67.5402 -68.1178
7531 1 -53.7898 -11.7456 -14.8137
2140 1 -212.872 95.5606 -69.8833
4642 1 111.93 -12.608 146.674
7804 1 60.8265 95.9757 -229.286
5034 1 169.251 148.681 90.9406
6446 1 36.9184 -63.2652 91.9905
7397 1 37.6216 46.3296 -17.0264
2009 1 -14.6771 99.8185 -121.623
3335 1 -120.589 -61.8535 -16.2536
5469 1 -10.1819 -7.91057 146.782
8059 2 43.0609 45.6657 90.0882
7626 1 -8.36732 -8.0485 -16.59
733 1 -2.97298 -9.26334 -124.891
7963 1 -58.9891 -115.344 -123.332
3754 1 52.3323 44.1959 38.8337
2119 1 -52.6811 43.8082 37.0032
3783 1 51.8412 100.616 91.3258
1200 3 -49.3557 151.615 -69.3169
4107 1 -105.399 100.001 -124.448
7925 1 -52.127 98.841 -14.5167
984 1 3.27745 -60.2845 39.6966
5813 1 -102.899 -6.98721 -70.9244
5823 1 59.7256 100.499 -14.7597
6649 1 -45.6449 -63.3145 37.6585
4127 1 7.33252 46.2921 89.799
1177 3 -69.2365 -56.0967 91.858
5917 1 39.6229 -5.33936 38.2105
3565 2 89.8183 -3.97342 -13.8874
4556 1 36.2308 156.248 -15.9349
7453 1 95.9567 -59.639 91.025
1889 1 148.958 -57.2164 92.1143
7762 2 -13.2889 -4.03794 -17.3686
6848 1 -60.7128 -5.81745 -69.7454
6195 1 -9.05324 -4.55412 90.2403
6837 1 98.1268 -5.0257 92.7147
3086 1 -59.8465 50.7351 91.934
544 1 156.675 102.564 143.907
514 1 -57.9621 48.3398 -122.242
3552 1 -3.1069 -3.08309 -15.2429
330 1 0.586707 -6.16602 -15.2174
5103 1 53.3412 104.003 145.345
7399 1 -162.796 -58.7868 39.5703
3988 1 56.4977 -58.8431 90.7403
274 3 4.63317 -3.68316 92.9595
5290 1 1.65084 -3.89934 93.5741
6502 1 6.61544 49.1214 -70.7165
2053 1 -99.9755 -58.5348 -67.6346
4953 1 -152.815 -2.76909 -69.0957
1649 1 -15.9359 -53.3215 -68.2317
7345 1 -14.3911 -52.5387 144.752
3197 1 -10.4267 213.735 -16.3265
2937 1 202.022 -1.42069 -70.8202
7999 1 -65.1949 108.777 -16.653
3822 1 97.0786 51.5223 -14.1109
3288 3 -12.7421 -0.176517 -67.8936
7735 1 98.6716 108.663 -70.4137
2048 1 -61.6117 -1.45875 -67.8594
919 1 -60.4691 -53.5816 -15.7233
6395 1 -9.71699 54.2913 146.953
3993 1 157.186 53.7721 -14.9668
6116 1 -58.3653 106.123 36.5395
6301 1 48.4769 108.777 -232.612
865 2 0.668469 52.2222 -68.5898
4007 1 -55.475 53.0786 -69.3627
3739 1 54.4276 -0.786445 -17.1956
2502 1 56.3876 158.926 145.277
6842 1 5.19667 159.428 91.4238
7332 1 -158.709 0.488491 -15.121
5991 3 5.2101 -53.0857 93.4006
4701 1 -45.7775 -53.4061 -16.1588
5186 1 166.645 0.507294 36.3882
694 1 -176.911 57.9408 37.684
551 1 -17.1484 110.213 93.3325
6334 1 90.1831 -51.6638 -124.151
2118 1 -13.1474 3.34624 -15.0615
2440 1 -64.2673 110.872 200.489
4269 1 -66.2058 57.2861 36.2183
2401 1 -63.352 3.90627 -17.2031
6095 1 45.8115 -158.104 92.8246
2719 1 -7.0566 -50.3499 36.0448
2237 1 -58.001 -50.1092 -17.5419
6173 1 102.375 110.113 38.3987
2354 1 101.606 58.9554 38.3268
266 2 50.0973 4.64246 -69.1269
545 1 105.32 109.723 145.885
5505 1 -1.31235 -48.6299 38.8519
2655 1 -107.125 55.4198 -16.223
4302 1 55.0288 111.469 37.4952
940 1 -0.915082 -157.665 197.445
7578 1 3.41336 110.182 -15.9405
2661 2 -50.444 -48.7423 -17.4929
7642 1 59.7255 -104.737 -123.629
5647 1 -153.298 -105.261 -121.78
2996 3 8.28591 4.79883 -17.0141
6444 1 -47.7535 4.12679 -14.2144
778 1 91.3693 7.49972 -124.397
6297 3 -14.5388 7.06129 39.5801
5707 1 -125.037 -101.583 -14.7661
419 1 40.3764 169.756 -16.5192
6576 3 -11.1671 -47.3602 -15.4817
1422 1 -13.6308 113.346 -70.7811
6524 1 99.5117 -101.259 -71.3551
4838 1 44.5583 9.16019 37.7496
3652 1 -8.08321 -47.2365 -122.269
6197 1 -6.45243 -152.536 91.3093
3066 1 -111.707 -46.5598 37.9449
5515 1 51.3024 113.246 144.097
4910 1 -2.6005 62.2213 89.8726
5000 1 -0.0631575 115.046 -176.266
7478 3 54.212 167.845 36.1148
6519 1 3.56742 -46.2092 -125.139
3977 1 58.9101 -46.8917 38.4666
4036 1 110.156 113.59 91.9243
1719 1 56.1779 9.05875 91.5132
7228 1 61.4371 -153.99 -122.23
3328 1 6.48538 -45.6967 -71.1232
5024 1 92.5917 -70.1905 -13.5302
5391 3 37.5746 199.555 -10.8803
6650 1 36.2742 39.3571 -13.4297
359 1 41.5397 -16.7732 39.9247
956 1 -64.9495 -14.928 41.3484
5844 1 39.9703 147.328 -173.331
7718 1 -63.8133 -71.4012 95.0105
1513 1 -66.851 90.9555 96.2602
8005 1 99.4544 -68.7268 -119.34
3519 1 -61.247 -71.3596 -65.6517
2650 1 102.192 92.1202 -65.0199
2908 1 -2.54341 -69.8867 97.0189
110 1 51.146 -15.7664 40.4879
6974 1 55.0589 36.8987 39.9006
3348 1 161.299 -15.1063 149.127
1562 1 -52.1802 144.02 96.3824
2097 3 3.46485 -68.8218 -12.4349
4987 1 -103.047 36.3278 -10.4625
2437 1 62.1738 -16.9372 40.3466
7967 1 -100.812 38.3291 95.8289
3175 1 -101.96 -178.436 201.873
6636 1 38.0588 95.4222 94.8471
5857 1 37.1963 97.1372 -64.0179
328 1 36.1838 -12.8247 -11.3426
5035 1 97.2862 43.4283 -12.7098
4917 1 -65.8328 -65.4257 -67.5177
3368 1 96.9368 -66.2935 -64.9074
4963 1 94.5768 -11.4633 149.985
7173 3 98.4443 -66.9101 40.0942
3336 1 -61.7528 95.1645 203.998
3103 1 -115.013 -63.8705 -119.638
2514 1 -56.179 42.0461 40.3158
968 1 48.146 94.5488 202.469
1795 3 -4.49474 43.6589 -11.6836
3287 3 -2.70683 -13.2806 -10.8088
7406 1 -160.102 -10.1643 -117.576
6062 1 107.421 -12.2218 -65.6709
7651 1 -102.187 40.3489 43.617
3504 1 56.1928 41.2367 -64.38
443 1 -51.4795 95.7754 40.5981
2645 1 -102.575 42.6064 95.2275
7661 1 60.9501 40.904 95.9747
1170 2 -46.3697 -10.5747 -11.6782
4745 1 -15.8736 -9.62851 40.8227
4743 1 145.008 99.742 -118.208
3481 1 -17.6827 -169.392 -66.8706
2966 2 42.9567 45.6248 -119.591
2909 1 41.182 44.5821 -13.5453
7119 1 40.1178 153.133 96.1998
2011 1 -64.6938 101.041 -117.927
2853 1 257.47 -9.84262 97.2327
2584 1 -9.023 -60.3003 148.836
6676 1 46.6855 -7.82748 93.8181
5919 1 -114.14 45.9852 -10.6601
104 1 -62.8328 -8.54432 -118.153
4697 1 -3.10884 153.075 39.9629
5318 1 48.7274 -60.24 41.5681
5240 1 -55.2618 98.0683 -11.7377
4594 1 -1.97434 100.998 -65.4359
4183 3 54.4581 -114.922 -65.7849
4545 1 -264.911 44.7198 40.8017
5475 1 112.518 -6.5852 95.617
7382 1 271.501 45.66 -10.176
247 1 -98.5776 -114.956 -67.4158
1749 1 -46.9683 -170.339 40.3282
5596 1 -100.038 -60.499 -118.981
477 1 59.493 -62.3971 -10.8428
7878 1 37.511 155.545 40.1771
6825 1 -70.395 -3.32017 41.8677
3186 1 39.1804 -113.03 -10.7566
3660 1 -68.4779 50.5932 -63.9051
547 1 -66.9237 104.479 -12.8756
582 3 -66.0249 -59.6244 -13.1489
6978 1 95.1092 103.287 96.8761
3510 1 -117.337 103.531 41.7261
585 3 -6.80992 -111.826 -120.592
4474 3 104.077 -3.79694 41.5117
7634 1 48.5972 102.338 -117.57
5630 1 101.52 51.0509 -10.4098
2734 1 -0.300063 -165.574 -118.794
4579 1 -54.4934 -56.2371 -67.0335
879 3 -50.8696 -4.34418 42.602
1041 1 -98.6374 -56.975 -226.607
2576 1 -101.514 -4.20336 149.711
6963 1 36.4084 107.938 42.3966
6651 1 38.6575 -108.827 202.872
1624 1 -125.17 106.317 94.1673
5659 2 -12.792 -55.2677 -10.4493
4079 1 -13.1414 54.4599 -118.611
6765 1 -10.7098 -107.979 41.8218
1906 1 45.2427 -1.85305 -118.646
1000 1 -8.75183 108.8 42.8915
7082 1 -60.6528 54.9013 148.065
95 1 -113.087 -1.35741 -66.4701
2249 1 -3.09355 106.751 94.9735
4462 2 156.949 160.308 -10.5088
4267 1 -4.49073 1.47531 95.6702
5642 1 -53.8353 -107.117 -13.5172
1991 1 0.191459 -1.40225 -11.021
688 1 -55.7412 -214.479 -63.9453
2370 2 -53.3843 -52.5844 -65.0531
301 1 56.0874 105.751 -174.144
5610 1 4.6912 106.233 -65.4215
2781 1 56.1821 54.6501 -12.1831
2865 1 -46.7772 52.238 -13.3725
3112 1 115.07 54.7397 95.5098
6726 1 39.176 -51.6728 -120.511
7368 1 -14.2671 111.703 -64.1024
7687 1 38.2672 4.75939 -120.574
701 1 -123.253 -51.8538 43.5864
821 1 -70.7877 5.1958 -10.4766
1249 1 -64.9715 2.30266 203.101
5536 1 94.6416 -49.1718 -66.5848
4045 1 95.6481 59.0191 97.1409
3267 2 98.5604 -50.9456 -12.5147
5954 1 98.3565 57.8714 -117.912
4340 1 -6.53451 3.20835 150.728
774 1 207.715 -156.568 -174.026
924 1 97.4778 112.798 -173.966
322 1 49.9364 3.86444 40.7106
1328 1 50.5979 3.01561 43.6158
2524 1 -106.638 110.215 94.0275
4668 1 -55.282 -105.172 -66.1156
2649 1 52.0498 58.8861 -11.8457
4046 1 53.9562 111.023 43.2349
4731 1 3.3751 -50.4712 -120.757
889 3 5.30728 -104.302 -10.9883
4407 1 271.311 4.49596 42.6625
938 1 -45.4533 -157.193 -172.395
6103 1 198.109 -100.662 41.2719
6434 1 -14.2359 114.267 150.114
6137 1 -11.5664 7.24664 40.9278
867 2 -119.257 8.08921 -117.747
7394 1 94.3242 -44.5753 -65.8667
2718 1 44.357 168.319 -118.172
5172 1 -169.864 -99.0522 -66.8456
5478 1 154.968 8.43128 -11.0684
4243 1 -4.05043 -44.9195 95.0701
1485 3 -58.5731 5.83605 96.4199
842 1 -56.7932 6.60304 147.679
4014 1 -59.6144 114.87 93.9717
2931 1 -106.51 -155.529 -120.54
5374 3 -54.3501 61.8352 -11.9606
3856 2 0.442622 -47.7788 -10.6347
5212 1 112.606 -45.3409 40.4082
6134 1 55.9652 61.9971 -13.4928
6655 1 57.9093 59.8051 -12.9695
1673 1 56.0363 222.522 96.9249
4439 1 59.0078 8.12232 43.1502
2120 1 -154.611 6.0978 42.0803
7785 3 7.93905 -98.3181 -64.9029
7026 1 36.6822 -230.243 -60.1229
5225 1 -13.9356 -16.653 206.132
3249 1 -68.6953 -14.6161 -115.366
7948 1 -70.1525 36.7176 -8.31616
5312 1 43.6594 37.5861 44.1335
6883 3 -66.0505 -14.0179 44.2606
7973 1 -11.3886 90.6674 46.6053
5830 1 -7.71655 -70.7116 -9.34932
362 1 45.1185 91.5053 154.382
6822 1 -6.66974 92.8768 -62.5337
2958 2 -57.7678 -68.4951 -116.492
933 1 -59.3123 -69.6235 208.217
5084 3 104.932 -17.026 -7.28696
2586 1 48.9623 90.3749 151.863
6019 1 -106.999 39.3369 -63.3504
7776 3 -52.6654 92.0253 -60.4958
6755 1 -53.9346 90.0781 -63.194
6484 1 -104.227 38.5322 -62.9548
3389 1 -103.077 90.5571 -6.94
2684 3 -48.8023 93.3728 154.596
2238 1 -98.3727 -68.0304 98.0369
1070 1 -47.3726 91.7313 259.653
3203 1 62.1091 38.2509 100.205
3910 1 -16.6701 42.1584 45.8189
3515 1 38.6407 -173.777 205.047
5661 2 -17.6248 -63.858 -6.47178
2116 1 -13.5534 41.6501 -61.2785
4224 1 -11.3127 147.922 -114.39
1261 1 -62.939 -67.5998 -8.543
4225 1 -63.4194 42.5257 45.1014
8022 1 154.074 96.1138 46.0154
4770 2 -61.1325 43.6092 -63.5509
7404 1 -4.59362 147.893 154.076
5453 1 209.445 41.5833 -9.86925
1842 1 51.1611 -10.5519 98.5362
6229 1 -0.684542 -10.0377 153.825
619 1 -55.7788 -67.3975 99.5057
5479 1 -54.1798 -119.312 -116.583
3498 1 53.8625 94.7588 -167.645
4384 1 -49.9572 -10.5594 151.331
4601 1 109.678 40.7203 99.3337
6220 1 4.16374 150.205 -114.299
1713 1 114.333 -65.4378 -62.6188
7748 1 -98.966 41.2526 -7.14708
5198 1 37.1757 98.9454 45.4927
4170 2 39.1707 -7.60205 -62.9482
2722 1 -67.6512 -63.6282 44.4733
763 1 -68.5906 100.586 46.9323
2994 3 149.779 43.7893 -6.81295
6762 1 -173.829 45.8581 -169.663
5214 1 97.5393 -7.25732 -62.0049
3798 1 -7.65587 -8.6561 -8.06688
3202 1 -59.0413 151.478 -8.54102
3490 1 50.0902 -61.5111 -9.83049
1355 1 48.6136 101.014 -115.403
3276 3 -56.8516 -8.31734 47.5407
3094 1 -54.9229 -115.827 98.182
448 1 -161.534 -61.137 -6.91689
7646 1 1.77173 45.0754 -7.53467
808 1 -156.724 98.9692 46.0192
6188 1 -50.7525 47.3238 -60.6705
798 1 -46.8608 97.8993 100.071
1029 1 6.44715 -7.3386 47.5548
1835 1 -45.3324 -114.197 46.0721
354 1 -45.5384 44.9308 43.8822
6588 3 -70.3536 -5.11267 -61.955
1052 1 40.1057 -5.19161 45.6029
4699 1 96.261 49.5783 45.9913
2671 3 -8.19282 -58.5297 -170.861
6685 1 46.1624 -113.634 -113.966
2652 1 -8.21829 50.3082 100.707
3771 1 -164.487 104.715 -116.725
575 3 48.6817 -3.74793 100.424
3871 3 -55.5573 48.1777 45.0138
1556 1 -160.065 -6.18099 -62.6909
3330 1 107.657 50.2902 98.5834
4735 1 -109.157 50.8489 46.842
736 1 58.8245 -2.82065 44.4735
7569 1 -50.9531 49.9434 207.087
139 1 -102.343 -57.3065 -6.40157
5746 1 9.06588 101.935 -10.0014
3594 3 113.272 101.342 98.4553
1453 1 -100.012 49.9804 -8.89689
3784 1 7.47157 103.046 154.663
4583 1 -16.4702 51.7121 100.031
3511 1 146.443 -54.2888 44.6224
146 1 -69.7267 54.4664 154.44
6070 1 -10.8744 212.695 44.2559
3471 1 -13.0363 -163.119 206.986
7959 1 94.4531 53.9104 101.278
1300 1 -65.1575 0.333869 -63.0189
833 1 97.2343 52.3223 46.6755
5395 3 -61.5201 52.7594 99.0639
5168 1 -59.9727 216.213 47.1034
5638 1 49.2554 -0.710119 45.7871
1810 1 -5.4585 1.24108 -9.64459
4623 1 -107.789 -107.771 -115.93
7645 1 54.5839 -109.742 -60.384
6599 3 2.67117 106.258 98.0727
7665 1 -51.552 -53.6655 100.45
8057 2 57.291 -2.03273 47.1861
7155 1 -48.6343 0.488158 97.5701
711 1 4.89849 106.964 46.2496
1953 1 -99.8929 -54.7634 44.0098
5252 1 -46.0793 105.942 -7.14101
5352 1 -46.8383 -106.156 -6.48697
1518 1 -15.8965 -49.9939 -7.98026
1660 1 42.184 110.533 -116.601
3415 1 -13.8053 -51.7248 -8.19859
5994 3 -66.7731 5.05698 -61.2153
6166 1 151.482 4.68103 153.312
2476 1 -8.32473 2.35342 152.96
6584 3 48.0277 -49.5968 46.1017
5041 1 -110.682 55.6559 -61.4204
1033 1 -54.3534 -105.233 -8.27533
7956 1 108.553 112.254 -62.014
6306 1 -216.546 -48.8388 44.6492
6202 1 55.522 -105.839 -62.8571
7677 1 -49.6689 -51.6774 45.554
2720 1 109.055 -50.8283 -114.091
2023 1 57.2874 4.81811 -7.18618
1524 1 -153.629 -105.802 98.3839
4804 1 60.1865 273.113 98.8775
6692 1 62.8705 -50.0075 154.247
6023 1 90.7392 7.89092 -9.90387
7358 1 91.3979 6.53166 46.0892
2040 1 93.7845 115.904 -8.69047
429 1 -10.7097 7.44496 153.116
7387 1 -61.0083 5.69747 -9.86734
1080 1 -169.33 -154.472 -7.51325
1533 1 -7.71407 8.92564 -277.657
2609 1 104.451 116.341 207.628
1221 1 -220.448 -46.1994 -8.4986
534 1 50.9993 167.102 -7.08713
3851 1 50.6594 8.15225 -10.019
1987 1 -54.3699 61.1057 45.0888
2227 1 2.07974 61.4738 -7.25614
4818 1 -49.1256 62.7499 -60.4747
4077 1 4.29155 -155.384 44.0791
4277 1 -44.6024 61.393 100.31
503 1 6.94744 -153.314 -8.64753
264 2 -46.0492 5.81682 46.6673
7983 1 -48.0866 -100.974 154.291
6733 1 -14.6386 36.7396 48.1715
4618 1 -124.393 38.0388 -111.169
6370 1 146.394 -68.3743 105.136
1154 1 40.5703 -122.403 -113.421
789 1 -120.257 -16.1451 50.5638
2978 3 -10.3574 -15.4779 -58.4708
3736 1 206.351 -17.7004 -4.65822
4281 1 47.6593 39.5275 103.152
5148 1 -111.158 -15.6589 -58.0125
5055 1 -113.2 90.1301 50.2024
5355 1 213.605 -68.3793 48.5142
57 1 54.8662 92.0712 -57.1284
6385 1 -54.4148 -17.4338 -4.35843
7541 1 -157.406 -230.796 264.231
926 1 8.838 -16.6468 51.0181
6663 1 114.539 145.038 -4.83702
3722 1 59.3549 39.8601 -57.3243
6287 3 -69.7033 -12.8703 -5.37789
3040 1 38.0683 -10.2548 50.524
7862 1 -122.348 43.5112 -59.8704
1999 1 41.0246 40.4397 -3.63175
6421 1 -13.1173 -10.7586 49.5229
2315 1 96.8621 -11.8367 49.1761
904 1 152.481 -13.3054 -6.09546
2311 1 98.766 43.4639 48.3157
6286 3 -7.79943 95.2007 -56.9157
5393 3 102.141 96.4857 48.792
3759 1 -2.52273 -65.3551 -59.6663
6536 1 50.8277 -63.8644 -3.32483
928 1 159.196 -120.406 -3.44295
8056 2 54.0796 -66.7381 -4.09583
6910 1 -0.215674 -118.189 50.9283
3157 1 2.37158 -13.5271 -4.57505
6215 1 57.6759 42.6988 49.4416
4396 1 216.5 -10.7109 102.232
5726 1 -45.791 39.9251 102.585
446 1 60.2218 203.161 48.5186
4301 1 5.98928 42.9677 -2.8424
5636 1 -98.9692 -11.8617 -56.9153
780 1 -123.961 -115.806 102.385
6839 1 93.3764 -61.8162 -111.59
7139 1 -64.9891 -116.234 50.0918
3586 3 -66.0028 -59.9644 -59.1441
6086 1 44.106 -115.372 -59.3995
4485 3 -61.4582 -61.3114 -57.2832
4002 1 -167.099 45.5817 -113.422
1905 1 -56.358 -6.95012 -3.32395
1166 2 -58.5123 -115.621 103.999
4012 1 -54.1377 -9.10573 -58.5643
4162 2 -0.732741 -6.68175 49.1145
6932 1 53.611 45.891 -2.45356
3811 1 -104.204 -8.5964 -59.0416
5602 1 162.789 100.446 -4.38361
8078 3 -104.332 -62.6911 -56.1157
1116 1 116.092 -114.429 -58.7979
5960 2 59.4071 -9.4458 -5.28152
5289 1 8.20804 205.236 -166.478
7683 1 113.556 -61.8388 -164.752
7897 1 92.7515 -3.96566 47.7137
7751 1 -17.2179 -57.9448 51.162
4524 1 197.551 155.526 -58.4821
3179 1 92.5076 -166.82 -3.40322
1616 1 -68.7348 -56.4129 -56.1112
5745 1 -17.1415 104.343 -112.633
2265 1 -119.694 -2.66806 -59.0309
3701 1 -10.3045 47.6407 -110.326
7657 1 97.8015 48.655 -166.404
3692 1 -7.23595 -4.40619 -4.02552
2402 1 -2.64677 -5.2865 48.0722
3621 1 -5.11768 -59.7577 48.9955
6813 1 102.668 -57.3429 49.8686
4626 1 51.214 104.562 -3.81804
5342 1 161.197 -4.83385 47.7557
2333 1 106.875 -5.14521 50.7412
4947 1 107.679 51.3957 103.521
4044 1 57.8316 -113.609 -4.13474
6901 1 56.1896 -57.6918 156.164
1171 3 57.9899 -3.0993 -56.4767
2460 1 -46.9735 48.324 -4.2005
927 1 7.34062 51.0015 49.322
4023 1 -178.608 52.4962 -164.166
5281 1 -14.3884 -1.39708 -4.8434
6183 1 91.0285 1.23664 210.987
5966 2 92.3353 -54.029 -56.4499
1629 1 94.0848 -52.7495 157.495
5747 1 42.4139 -0.308391 -4.62968
1982 1 -64.5152 -1.82753 -2.34586
1972 1 -8.91234 107.976 -166.735
519 1 -114.194 51.9881 101.811
2600 1 -8.46302 0.249977 -2.57591
676 1 -8.89861 -1.85048 -4.2341
6697 1 -5.95711 0.205525 210.967
4651 1 -3.51387 52.7964 -112.642
2959 2 49.4374 1.26957 -59.352
6230 1 -2.97688 1.48932 103.847
1797 3 53.0412 -53.105 48.1645
5054 1 -1.51527 53.0943 -2.38744
4040 1 2.58114 52.6093 102.871
1995 1 -156.884 0.0296009 -163.636
7809 1 59.0432 106.619 -112.434
1349 1 -99.251 -0.28802 -4.51018
7570 1 113.72 55.1979 -3.50795
1239 1 93.1843 2.86654 155.459
664 1 -15.8497 -156.391 -5.05429
2995 3 39.1658 164.582 -109.985
5100 3 -118.684 -51.2316 -59.8692
4674 1 40.5567 58.9085 -58.3165
1621 1 -10.8301 1.7587 50.6533
3933 1 -115.951 -50.6306 50.5058
953 1 -8.09825 -50.2406 -59.8003
457 1 -59.9982 4.94066 51.1879
7314 1 101.491 56.6473 -58.1782
413 1 -56.7709 -50.4024 -166.718
5174 1 105.504 111.815 50.495
1287 1 0.038312 109.723 -2.84918
3999 1 -161.935 -49.3334 -59.6256
3647 1 -52.9928 58.3015 50.0693
1336 1 58.1104 55.4271 -59.1737
2886 1 -51.7399 -105.889 102.936
3400 1 111.006 111.441 -111.796
2225 1 62.3276 109.99 49.1437
4649 1 167.563 57.7403 101.615
690 1 90.9383 -99.3616 48.3437
4465 2 38.3615 -98.786 -57.4737
3729 1 -67.7198 -46.0642 -5.32307
4703 1 36.8201 114.099 -3.08086
7018 1 -67.8835 60.3895 -2.55759
7291 1 -64.353 -47.9828 -112.915
792 1 -11.589 7.71901 157.74
4781 3 -63.4502 -44.7376 -59.4989
4120 1 -60.2863 -45.619 49.7274
3528 1 -7.2938 -101.678 -58.7143
5859 1 -4.07409 8.0338 158.698
6052 1 -58.9354 6.72799 -6.1525
4469 2 -2.95845 -46.2722 48.4623
3908 1 103.286 -48.3558 -111.514
8037 1 -1.34189 60.7388 104.304
186 1 106.791 61.0488 -59.6189
6222 1 108.777 7.23398 103.42
2479 1 3.71776 6.8721 48.5228
4158 2 -52.1316 59.0817 101.665
7522 1 2.98354 223.725 -2.383
2897 1 2.98251 -155.481 -56.1125
4615 1 5.39037 62.2521 -111.41
4891 1 -48.2847 -47.8208 157.832
1921 1 7.42874 275.803 -4.83733
4957 1 -15.2916 -71.0862 51.6248
2156 1 -70.6105 -15.4234 53.1068
6928 1 39.1112 39.268 108.288
3145 1 -14.0755 90.0134 54.6824
979 1 94.9569 93.5576 -54.9351
7331 1 -11.7893 37.4764 -160.849
6593 3 -10.3656 -17.4842 -55.4729
1157 2 -6.19749 -17.2557 -1.05378
3027 1 46.0816 38.1611 51.6673
2794 1 -63.6189 -121.9 -1.56804
4512 1 -62.9297 92.2246 108.532
1587 1 -112.412 -69.0552 105.634
6849 1 47.5958 -69.5474 0.748923
852 1 -110.895 91.158 54.1748
6570 2 -56.8025 -13.9282 -1.23274
2813 1 160.335 -17.474 54.1401
741 1 52.1752 -69.255 51.7761
669 1 162.081 38.4762 -0.332652
4458 2 0.253758 -17.1988 -55.4009
7822 1 110.156 36.6913 -2.17908
6938 1 57.4107 -176.974 215.074
440 1 -104.104 -67.9553 51.4398
240 1 8.50461 38.0469 -53.6629
7480 3 59.6069 37.0533 -1.81607
4236 1 6.04651 -230.351 108.646
249 1 7.63873 147.298 -1.70279
3296 3 36.1809 -12.6352 -55.1324
7987 1 -69.1605 41.8792 108.882
1630 1 39.404 -65.614 51.9909
3239 1 -12.6981 -11.8196 -52.7822
8087 3 149.849 -11.529 52.129
3472 1 -7.29137 -67.3108 53.5301
7271 1 153.233 -10.9212 -53.4287
4019 1 43.7326 -12.7674 -52.7518
7104 1 48.9326 -66.3349 -55.8598
230 1 -58.4884 -13.4723 -106.916
4563 1 -58.7217 -118.166 0.643938
2457 1 51.2324 149.958 -0.966483
7518 1 51.6696 -67.5403 108.335
2929 1 -0.583879 -13.142 52.3537
6875 3 -107.317 97.3079 0.386384
432 1 109.37 -65.5335 105.23
1870 1 110.267 94.4517 0.0192213
3955 1 164.91 -118.095 53.7631
4411 1 112.98 201.873 -0.774388
1286 1 -99.887 40.8237 108.516
4166 2 7.38973 -119.134 52.8273
1115 1 6.76016 204.706 -52.8087
1979 1 144.891 -6.90756 -1.41899
661 1 -15.5392 97.8084 -54.0057
5788 1 -70.01 46.2319 -52.3308
7203 1 40.8299 47.1839 -2.00049
6101 1 40.7459 -116.533 106.618
4576 1 41.1539 100.391 0.533527
4949 1 -9.10307 98.0397 52.2447
2242 1 97.8078 154.405 -0.246429
3295 3 154.616 -8.10741 -160.654
5741 1 -113.493 -9.98115 -55.7383
6371 1 50.2474 45.1987 -55.1475
1920 1 -3.8371 -6.98647 54.8139
3561 2 -2.85509 151.723 54.4121
5109 1 -5.30965 101.133 -2.16588
5646 1 106.087 -168.788 -0.306177
735 1 108.448 46.774 107.689
1484 3 111.204 100.37 108.557
4746 1 61.9374 98.0607 51.8936
4799 3 -45.0826 -6.53796 -55.5637
6644 1 59.5312 -8.72294 52.5789
7021 1 7.00478 -7.28916 1.40081
3939 1 144.65 -58.5896 107.609
3960 1 -67.7041 210.294 53.9716
2862 1 -12.7159 103.522 -2.33124
2043 1 -10.207 49.9713 106.807
4486 3 46.3252 51.1372 -55.3524
3041 1 -114.988 -166.779 -55.1968
7955 1 -115.373 103.434 108.389
7846 1 -4.87603 210.601 107.557
1612 1 -164.313 -58.5026 105.828
501 1 54.8581 -3.76069 213.327
1466 2 -54.7867 50.4471 -1.69483
7410 1 -54.9908 48.767 0.194004
7709 1 1.41786 -58.3036 108.64
6131 1 110.341 -5.97747 266.79
2304 1 4.06828 -4.36727 107.408
381 1 166.768 -5.91982 -1.78404
6351 1 61.6877 -3.41488 52.0458
7669 1 -46.9336 102.45 -53.4239
2212 1 -155.695 -2.42325 0.108676
1398 1 38.0868 -108.59 160.768
350 1 -70.5868 0.767957 108.957
7262 1 39.826 54.4481 -108.294
5421 1 -177.77 1.482 106.187
2693 3 -12.8085 51.8328 54.1906
2702 1 -118.519 54.3074 -161.779
7408 1 45.2507 108.475 0.593479
1922 1 46.7779 -1.19302 108.303
4264 1 -116.942 -55.7943 1.35115
5246 1 51.0873 105.37 -0.313773
2963 2 102.449 -55.8343 53.7729
255 1 -58.1041 159.816 -109.677
6050 1 -58.2219 -53.6114 54.5886
1416 1 -107.519 51.6668 0.427599
1095 1 2.84658 -55.7647 -53.6546
7491 3 109.044 -54.1065 -1.74789
5904 1 110.816 54.6382 0.391677
3284 3 62.1971 108.236 53.9536
7547 1 8.02024 105.177 0.673687
2342 1 6.87233 -0.734629 -55.8217
232 1 -16.533 -48.6797 52.9535
3746 1 92.4262 -212.015 108.109
6834 1 148.758 56.9637 -0.28623
7985 1 -65.1331 -48.6952 51.5766
7656 1 -10.785 56.9831 1.43707
1966 1 -9.84608 110.614 106.471
1796 3 -61.2982 4.50914 -53.2086
6583 3 47.7631 55.3114 52.4652
3468 1 156.749 3.40016 1.13568
3886 3 -2.04646 55.6292 -54.2469
3467 1 -52.8714 2.07165 -53.7706
4710 1 53.4263 165.829 52.6509
3097 1 3.26584 -104.745 -109.599
1828 1 -50.1125 -50.3169 -53.4656
1038 1 -101.656 55.2779 -54.8128
5785 1 59.4238 58.1827 106.203
5818 1 -45.7576 56.7911 51.7954
2948 1 60.3526 3.29336 -106.589
7363 1 -13.9549 59.2251 0.0846139
2683 3 92.0099 -45.8654 -0.0836212
5640 1 150.72 5.84737 -107.237
6337 1 95.3161 114.878 53.0715
287 3 -8.92797 7.06502 51.4824
3126 1 154.864 114.585 213.622
1981 1 99.2523 -100.236 108.221
154 1 -58.6198 62.6474 -160.937
873 3 50.4296 5.44511 -54.5241
1578 1 -2.126 116.1 -0.699134
6231 1 106.664 -47.313 54.7073
5629 1 53.838 -44.7337 -52.9497
1733 1 -51.8954 7.06674 -0.0195452
3612 1 -49.4475 5.83432 0.982491
4868 1 -100.032 5.6979 54.0089
4815 1 61.5847 -101.528 -2.27101
2679 3 -48.0695 61.5689 160.267
1435 1 37.1765 145.04 -49.0677
4932 1 -69.9531 -16.9964 2.33913
3944 1 -70.4701 -14.0919 -104.468
3482 1 -175.116 -15.5886 3.43746
4088 1 96.1073 36.6667 -103.725
1957 1 -11.9763 39.5087 2.04363
7086 1 98.1692 -14.8509 -157.677
668 1 -6.79317 -123.371 -103.581
1537 1 105.059 36.6561 -158.159
7692 1 156.643 145.999 56.6732
6104 1 -53.6197 37.9129 110.487
779 1 -1.78834 39.1929 165.119
7164 2 56.0154 38.9426 55.5581
7636 1 56.2909 146.893 57.8453
7655 1 111.417 37.4276 2.98427
7096 1 -51.9602 -17.45 -51.9551
4573 1 5.49598 39.1148 111.749
8081 3 -46.7295 36.6536 3.39397
3685 1 -45.4858 -67.8762 57.3866
5042 1 -69.4149 203.619 111.608
7764 2 -14.265 40.4748 2.92198
3372 1 -14.6367 201.304 -48.4504
4707 1 -13.0807 -10.9722 3.49077
1294 1 -65.7098 40.3405 4.69495
4174 3 -6.99083 40.7492 -104.837
2769 1 -63.6747 -65.7877 57.2282
819 1 100.129 -10.0383 -50.8806
6311 1 -8.13734 -10.7805 5.28008
4464 2 -165.242 40.3858 58.9645
5171 1 -111.451 41.0769 3.07688
2837 1 48.2138 -11.3373 5.03651
4447 1 51.7195 42.8367 2.25053
4292 1 107.774 -13.0139 162.959
2538 1 0.21693 42.5844 111.051
5386 3 51.786 42.4879 166.411
5120 1 53.9708 40.3467 -48.5577
460 1 -210.39 -63.8256 164.026
2329 1 -156.741 -120.859 2.05349
2989 3 2.97373 149.607 -48.4385
3180 1 56.1158 -119.087 109.729
4806 1 9.01342 149.751 -157.911
670 1 60.097 -12.103 3.44505
2058 2 -123.658 -117.395 -159.222
5476 1 38.5417 99.0005 -103.842
2334 1 -13.7938 -62.957 -52.1324
7183 3 96.6798 98.2999 1.69718
137 1 95.2365 45.104 4.61493
3916 1 40.3981 47.1266 56.8405
6349 1 -63.0324 -62.1605 58.3025
4517 1 -7.58323 -59.9474 -102.505
4081 1 -111.644 98.0015 3.20147
2634 1 -58.0062 46.9477 -103.265
299 3 -55.0623 45.7151 110.444
5346 1 -52.6687 -60.1634 57.3077
5887 1 1.83631 -116.218 109.76
7094 1 8.74152 47.5543 164.198
4368 1 62.8132 -169.812 56.3902
2603 1 59.7852 -115.391 -103.546
2314 1 -99.5363 -116.595 59.0279
6893 3 37.4281 51.2319 -51.7147
7095 1 -15.8293 -110.314 5.12218
2165 1 -15.6226 -58.9718 56.7205
5676 3 -64.368 -5.72702 4.58216
4212 1 -118.368 -4.85738 109.031
7811 1 -13.0831 210.965 2.66412
6592 3 -10.8782 -56.1585 4.28137
1054 1 45.0251 47.5703 -158.641
4695 1 -61.0714 -2.61213 111.934
4834 1 -5.90931 -59.4807 56.3135
6057 1 101.688 -2.86028 55.8565
3825 1 157.77 104.724 2.08693
5727 1 105.076 48.609 2.84117
3855 1 -57.3215 -111.038 4.6677
6581 3 -0.548593 -2.79475 57.1044
6077 1 56.811 -165.464 57.1596
7849 1 -49.0664 -3.40577 59.0288
6750 1 -48.0087 48.1389 -50.7769
1738 1 -47.1123 -3.18175 -51.0192
22 1 -16.6551 -54.1736 -103.441
7383 1 -68.0387 -53.8311 -51.7949
1735 1 -10.9354 0.306284 -51.6175
1420 1 -121.132 51.8864 4.35073
5050 1 -10.313 107.923 58.5576
5142 1 -174.071 -106.731 57.8197
2258 1 -61.9998 53.1232 56.9438
5243 1 -59.3355 107.097 110.585
1127 1 -3.04185 52.8126 3.90973
6447 1 -1.74061 107.137 1.75447
4628 1 108.828 -0.114722 109.16
2130 1 -107.257 215.004 -49.1615
5204 1 4.18865 -55.0753 56.2158
5709 1 2.54418 -55.2829 4.37382
4157 2 114.565 105.375 5.10842
6489 1 -48.2026 -214.139 55.6643
1277 1 7.6241 -54.1927 57.0615
1970 1 -14.9797 1.98223 3.30018
5139 1 -176.806 -210.361 57.9296
3864 2 -13.0244 109.234 1.49519
3208 1 40.3729 -103.458 110.027
6058 1 42.6173 -156.826 58.8062
7903 1 101.044 55.6478 -51.6212
114 1 -62.7152 2.57549 56.9211
4175 3 101.182 5.03587 57.8661
5075 3 -3.72917 -51.8399 57.6691
740 1 52.1681 -49.8344 109.106
5562 1 -108.992 111.335 -103.163
2654 1 -53.9957 55.6347 2.36729
5266 1 161.872 2.42968 112.442
4784 3 55.4541 58.1604 2.14705
3119 1 3.05327 55.3807 110.8
4275 1 4.97474 -157.516 56.9707
1726 1 8.86939 4.11954 166.107
487 1 7.04607 55.8132 58.1351
3859 2 -46.2521 4.09489 56.7931
6952 1 -154.695 4.99699 112.66
5254 1 9.10936 -104.933 -51.2044
7327 1 92.6404 -100.717 -158.757
6540 1 198.845 -98.3327 -104.331
5931 1 36.0873 6.94879 1.82933
6890 3 96.9543 8.99137 56.1486
3261 2 -67.0514 5.79335 -49.3976
1860 1 -65.9552 -100.847 109.823
2668 2 -64.4086 114.361 4.44904
6033 1 148.087 -99.2752 111.987
7401 1 151.628 5.37606 2.66286
3931 1 45.4554 7.46728 111.179
2298 1 -57.353 -46.781 5.24351
6543 1 50.4584 112.887 56.6431
6984 1 48.4591 -101.109 162.773
2508 1 47.9905 61.7608 -50.0334
892 3 -2.81939 115.935 109.796
2969 2 -0.0534662 8.76378 -103.776
7333 1 -0.693596 113.788 -50.0101
1258 1 52.0656 -152.097 112.657
1722 1 1.73388 168.673 164.134
4593 1 3.97158 -47.4782 3.56712
948 1 4.65366 -45.5631 2.0821
5689 3 62.8842 6.9593 4.51188
2815 1 274.889 -46.1018 -48.6149
2307 1 -47.151 60.0217 56.4897
4257 1 61.0847 8.57372 2.05307
5756 1 92.4858 145.258 -46.8432
6560 2 -68.986 39.7523 61.655
3662 1 90.3165 39.5471 113.997
4371 1 96.8167 -15.2759 -45.5101
3688 1 -12.3165 -123.264 5.71164
1447 1 -12.5615 36.2163 115.179
6668 1 93.8561 -69.409 9.10082
3215 1 -115.991 -69.8816 6.30995
6327 1 45.9211 92.2003 -45.1859
1681 1 -113.867 -13.9171 -47.8676
2267 1 -5.79287 36.2843 -46.3248
4025 1 -4.17387 91.8365 -47.9865
3235 1 -2.54755 -16.0033 62.1837
4247 1 -4.9394 -68.7387 169.248
4982 1 -55.662 -67.8878 -100.922
872 3 -55.1226 90.5683 -47.9786
472 1 2.69769 91.7951 116.077
49 1 1.49487 37.8136 -47.6727
7196 3 58.2693 -16.8354 59.6007
5102 1 111.258 39.6075 6.6013
1594 1 6.27767 37.2327 62.1927
3043 1 -154.048 -68.8153 60.102
4125 1 -15.3794 95.8336 7.3448
3117 1 150.574 -12.0741 116.143
7319 1 39.9655 -10.1791 6.07619
4915 1 -12.9521 -66.9625 -46.2142
3362 1 -10.9538 42.8809 5.88567
2106 1 -174.212 -64.5753 -45.1794
1497 3 -63.1517 -120.905 6.3881
6171 1 -6.64219 -12.6744 223.676
4658 1 -62.2446 -10.9407 -98.8605
5711 1 -3.84512 41.5112 7.32232
1434 1 54.6954 -13.7847 7.91641
7858 1 -52.9161 -172.309 61.3131
2876 1 -55.3674 -63.8872 8.27678
3950 1 -55.1208 -67.3593 9.13875
7658 1 110.782 42.0194 -45.2451
7208 1 115.223 -67.4625 8.87197
3054 1 -48.0261 -10.2986 5.40125
4797 3 62.1112 -12.2292 59.9441
7343 1 5.69754 -119.715 114.776
241 1 90.1668 -169.063 5.73134
3596 3 -14.2455 -60.6894 -47.5837
3371 1 37.5342 45.0438 -45.7754
1540 1 -65.5007 -169.45 114.567
2635 1 147.449 45.9119 -98.4696
2651 1 -6.828 97.8925 7.02214
5578 1 44.8952 206.899 -46.5094
3029 1 103.372 -170.375 5.94704
3657 1 47.7375 207.131 -98.6678
2369 2 48.0521 100.187 6.33023
2425 1 -111.095 -168.044 115.123
2486 1 -52.7381 44.596 -102.043
4352 1 -1.54407 99.3084 59.7657