ITEM: TIMESTEP
0
ITEM: NUMBER OF ATOMS
500
ITEM: BOX BOUNDS pp pp pp
0.7744419354 22.3949534646
0.7744419354 22.3949534646
0.7744419354 22.3949534646
ITEM: ATOMS id type x y z
395 1 1.7042195965 5.9282094197 0.9161435792
22 1 2.0348117255 1.04689767 2.5049626222
251 1 4.929300899 4.7995639369 3.4900738417
213 1 3.0084144396 3.9804384122 1.4360648687
381 1 4.4943609857 1.1820944788 0.9151621787
77 1 5.5586817858 2.2959496767 5.7313124169
449 1 4.1061020231 4.336753958 7.1743246676
488 1 5.0417858301 1.0503166862 8.5649237856
155 1 4.9359204992 4.8274344388 9.6970147033
132 1 1.9741890461 3.9868943251 9.7724462191
411 1 2.7854243115 1.266130041 10.5377188456
130 1 2.4171546359 1.4470874822 7.793549096
267 1 5.2127418649 1.21071313 11.3333035791
179 1 2.1718670863 3.384397641 6.3682393034
41 1 3.1917467932 3.4501072403 16.0237092461
284 1 4.4066577485 5.8884021973 14.4548570076
380 1 5.9280621694 5.680518279 16.851528236
205 1 4.0225345301 2.1901510939 13.829349565
26 1 6.1698816898 3.8240042372 12.4400880796
238 1 6.0490651793 3.5120825044 15.6230337201
277 1 3.2740374966 4.3750913624 12.0439549133
458 1 1.1786082107 3.5789918192 13.5916558355
311 1 4.9140625897 0.8674350932 16.586676281
168 1 3.261526004 6.062503827 16.6736880528
70 1 4.4776771833 3.8551262982 20.7592860165
384 1 4.3535023329 3.77003872 18.3922327589
135 1 1.6246551071 1.9054340852 20.754295938
120 1 4.4249135119 1.1752861104 19.1891268093
38 1 1.5860579042 4.597942939 20.2120183796
234 1 1.5134551682 2.6660252638 17.8885467069
108 1 3.4416816057 6.1378703804 19.6403540154
71 1 2.6106663761 9.2971769563 4.4586101389
229 1 2.3373542851 6.639299353 3.5281450742
104 1 3.9334972883 10.5014442313 2.0489334776
18 1 4.590045061 7.6960597598 4.0516674539
336 1 2.0791300317 8.9963197667 1.3912783754
364 1 2.7523700755 6.2586613576 6.1078918088
487 1 5.7982298072 9.1678690018 8.7906318851
366 1 5.7415385414 11.4619542781 7.508845645
16 1 4.024937412 10.4048252861 11.4308246332
202 1 1.9097376341 10.1912510185 10.109584191
72 1 0.9656895988 11.2834564309 7.8240414929
332 1 5.3620100358 6.7624220064 6.7412261
228 1 3.6723725004 7.0924653485 9.2171301303
53 1 1.0050248778 6.8056655887 8.4201865822
389 1 2.2441172186 6.4316317385 11.1300262966
359 1 3.934076154 10.5090771651 6.3784387272
12 1 5.2160903427 6.4889909354 11.7444228853
272 1 5.0298163324 10.2139774113 13.9488536966
139 1 4.2063002608 8.4057961499 15.7914663407
37 1 2.442706631 7.2864822855 14.3166191725
159 1 2.1411934372 9.5116279859 13.2554931403
81 1 6.096777493 7.1721901253 14.0782987438
253 1 3.037018292 9.6285161989 17.7948314956
482 1 3.570381472 9.5771673876 20.794647324
397 1 4.2673596474 6.376677503 22.3589584854
224 1 1.6079944876 7.7225988963 20.5451928296
46 1 0.8526150716 9.8784141055 19.5706145766
349 1 5.5361679124 8.5422166107 18.9093648537
157 1 1.2772686346 7.3952389257 17.7127820166
478 1 3.1996030965 16.0824235668 4.4048577846
495 1 5.585142432 13.8809165152 2.2445916691
369 1 1.2808828625 16.8716419174 1.9282981894
60 1 6.1196889739 16.5184058056 4.0795585105
122 1 5.2007416507 12.1238601491 4.0534144002
302 1 5.2424173348 14.3152727274 5.6686956675
390 1 4.480084738 16.6536373831 1.9298888377
375 1 1.0294136432 14.0095745111 2.4937767864
297 1 4.8372617336 15.8741196806 7.7504768716
330 1 2.2123560846 13.1969798817 10.6166694719
446 1 2.9277252129 12.9346511264 7.3279436199
114 1 4.4035229876 13.3009832628 9.5811182397
49 1 3.1553986084 16.1162517492 9.9128850082
95 1 1.415340482 14.6396234167 8.4008468163
469 1 5.7297588038 15.5553358492 13.8399154665
441 1 3.1933578366 16.5109483412 14.6165467871
245 1 3.9882593092 14.1851081352 15.8969402407
164 1 1.8187047408 15.1393719897 12.8109833125
331 1 5.7799023018 15.4008303182 16.389792119
442 1 4.3652441031 13.4281213044 12.8954462983
370 1 1.0873776562 15.1426889308 16.4003393782
242 1 2.5182896544 12.0517371164 13.6794042226
4 1 2.5538007664 11.8789394041 16.3115774404
231 1 1.1244135178 16.43053043 20.0470349782
172 1 2.2997109065 14.5241070328 18.9203316874
128 1 3.0732668265 14.7985045066 22.256750501
82 1 4.6709807501 14.2705072746 20.1754851993
236 1 2.4279439246 12.0411894861 19.1238334366
65 1 4.3765660658 15.9950679156 18.5012158
154 1 1.5088001094 11.9048571036 22.2113030012
474 1 4.5135202329 12.7523171916 17.9666983381
339 1 4.8792498222 12.4238326725 21.5984482664
89 1 2.4802937404 21.7890785933 5.2473089749
464 1 3.8165475088 20.6712748367 2.1861157407
5 1 3.4743791213 18.2971772257 3.6584663684
233 1 1.2656490961 19.8685243444 3.3570628376
258 1 5.328656163 21.4827600343 4.0254948426
426 1 6.0496190153 19.3494308158 2.7590830479
90 1 2.2779670292 18.9471282858 1.0218816485
481 1 4.4311186255 20.1011390281 6.0942191491
192 1 3.1392031459 19.5550562958 10.3247000418
450 1 1.2269064289 19.6842238914 6.7281636991
175 1 1.4263917132 18.5105165623 8.9894778091
328 1 1.1543803468 20.6494817822 11.1743354433
184 1 5.2950476409 17.8527023141 10.238732355
288 1 4.3032754245 18.5750892019 8.2166335768
466 1 2.3856476385 17.1646519817 6.4945360163
73 1 2.538078439 21.5249005394 13.4257006916
189 1 4.7133028089 18.638794657 14.6991907631
215 1 4.1805191615 17.1358669627 12.3172366195
3 1 2.16164864 19.4254097221 14.5486921031
409 1 4.4660002257 19.6659953251 12.6237578504
427 1 1.650932577 18.230860639 12.5447069134
62 1 3.1076516449 20.2306669228 16.8122064255
78 1 1.694415928 21.3501876711 19.3074236815
29 1 2.6118963271 18.7520128111 19.6793611254
246 1 5.5170491585 19.7618907287 18.2436747189
472 1 1.3670934798 20.9258829644 22.1028992017
373 1 4.6869639903 20.7047980438 20.6510294726
259 1 2.4393606922 17.0244518404 17.6289512557
261 1 3.7975544379 17.0731000549 20.851078091
148 1 0.8067446464 20.8544219574 17.0560536986
376 1 8.1710387745 2.4614550086 5.0140841046
499 1 9.704139571 3.1925391287 1.6313334398
256 1 8.5543080651 5.2664056719 2.8249368909
153 1 6.8506138804 2.4452791925 2.5491073446
386 1 7.0317395334 5.1021296705 5.0807883682
392 1 11.1503569236 1.2220956355 2.0364124621
145 1 10.0718293079 4.6934324589 5.5747038239
353 1 6.4268637687 4.9800209395 1.305339115
266 1 11.5423520622 3.4696116438 3.5475931548
470 1 9.2362048553 5.3416670041 8.5987963693
227 1 10.811972285 5.802190082 10.5416175905
479 1 9.8839005753 2.8162654422 9.8617553364
161 1 7.6224204131 3.9451165708 9.8304991498
414 1 7.5938713151 1.7785384639 8.2013065506
68 1 6.9525701783 3.7439659715 7.428885231
468 1 10.2934133436 1.6983262713 7.2370310204
383 1 7.5270040024 1.706940223 11.3360226514
190 1 11.1295608477 3.3945327496 13.4319627764
33 1 10.2169710505 3.5025906441 16.2325892432
137 1 8.1983245043 3.2466270992 13.6818497968
64 1 7.6055158062 1.4551214537 16.0970412056
28 1 8.809869611 5.3017425633 15.1075306827
387 1 10.5492079998 5.8455570094 13.3438331375
325 1 11.0407307277 1.2154129489 12.151381992
196 1 7.7308340297 5.9305470446 12.0389524753
136 1 8.318702724 4.7372622031 17.9519360324
323 1 9.2791243887 2.6196509301 19.2358494302
151 1 6.840923642 2.0917334651 18.141876354
223 1 11.351263706 5.1102998656 19.0227524385
340 1 9.3164060608 4.6138614632 20.7597308856
40 1 7.226324862 2.8678275911 21.4557923224
88 1 6.4233356089 5.8222111546 20.3761096385
486 1 9.9121695907 7.1912714385 5.9360509521
2 1 6.627502812 7.9718395083 0.8156061404
322 1 7.5506742857 8.4860189116 3.8757264493
374 1 10.9178104789 8.7215733636 0.981173948
249 1 8.6099663114 9.7181329198 2.0126441731
352 1 10.5077889321 8.9008552838 4.161124369
399 1 8.6348220133 11.5563174042 3.7926567881
219 1 6.6167814474 9.9662478177 5.5948739795
271 1 11.5210838899 6.4246534716 3.2230577785
290 1 6.8878571072 10.6386553932 1.0103373457
313 1 9.558487169 8.5077899443 10.3790012924
232 1 8.1131076468 8.1647304141 8.2062425871
142 1 8.2993613964 10.5098629279 10.0221176928
329 1 7.0411892796 6.4931678718 9.534526288
403 1 8.7940815688 10.384042938 6.8848044665
282 1 7.6043076242 10.5876587832 14.5977937322
27 1 6.2975488593 9.0026615571 11.9872829218
32 1 8.9407536323 9.1866821792 13.0787193596
312 1 10.1936034706 10.2344038916 15.4570797741
471 1 7.3755726525 8.1693596908 16.0723051514
257 1 10.4751475581 10.7252337495 11.895802285
338 1 10.4722514945 6.9421075287 16.4824270743
326 1 11.388558759 8.0946181935 14.4713824863
43 1 6.2154816941 10.3629549332 16.7179358272
169 1 8.5396720134 9.1689548264 20.4341682456
436 1 6.5925757552 11.4478099303 19.9143015205
485 1 10.8240944375 10.146022267 19.035286646
435 1 8.6160885623 11.046968123 17.7571187468
372 1 9.5645530885 7.3863513792 19.5234797809
415 1 8.6366027395 6.8881946117 22.0162027296
250 1 11.1503503002 10.8274662715 21.5528090624
440 1 10.3478075399 15.2536302848 3.0481566642
15 1 9.5094676283 12.3709362244 0.7777994972
276 1 7.9213279667 14.6014467345 2.945632131
51 1 8.3272714192 12.6226049196 5.869776437
163 1 11.1152222523 11.7695652984 5.0071406307
308 1 11.2405270477 12.688921522 2.4704511883
220 1 9.4970214718 14.8282825871 5.3949369839
410 1 9.3833284 13.3997223967 10.28835058
483 1 7.087759608 15.6892046865 6.2685102804
307 1 8.3975275844 15.4547538159 8.5779922266
195 1 9.665070642 13.0175101039 7.9312406727
281 1 6.6037024087 12.1472981509 10.7808941528
255 1 6.9323145498 13.465027716 8.028252441
83 1 10.9434090421 11.7618535051 9.708351411
244 1 11.3791292105 15.5702990248 6.856926943
286 1 10.9318254111 15.081590967 15.3955098912
419 1 6.8925066221 13.0459163308 16.5199971938
166 1 9.9268407062 14.382352507 12.6983137627
432 1 8.2364945146 15.2857578577 14.3057022486
99 1 11.0866497824 11.9923329923 14.0584696502
278 1 9.6379535845 12.8666949046 15.6321959025
113 1 8.5523707572 12.2279399367 12.7569662631
45 1 8.7906847173 15.789350664 16.5289212897
6 1 7.0065354978 14.6306289057 11.8444890003
268 1 7.6355945822 14.3453595123 19.3796399231
237 1 9.7228770802 15.4073037462 22.1688945017
239 1 11.1308149841 15.6652250399 20.3439645637
401 1 8.9417245937 12.2119678126 19.9033784009
310 1 6.3305062785 16.2357665649 20.6655787627
48 1 7.111174271 13.9753973834 21.8280710275
19 1 10.0911311303 13.8870889362 17.8543532924
241 1 6.9877525521 21.9207491042 1.1088036094
314 1 10.7091560242 20.0833685721 2.7589928091
296 1 10.423316973 17.8940744772 1.6621134613
160 1 8.7333023727 21.8153687021 3.0009407618
217 1 8.5828499191 17.4556603112 3.573852333
260 1 6.5268097324 18.944215695 5.4995340015
194 1 9.4464480394 21.3191667278 5.1401197656
445 1 11.2397626612 17.1147524289 4.3994510847
13 1 7.4366431717 17.1516797475 1.1866708814
110 1 6.9030532701 17.7723569865 7.9412933356
285 1 10.3816524417 21.8395076478 9.1753367656
351 1 8.3065638055 18.3717389592 9.8462736326
206 1 11.2087785598 17.5772887148 8.7305778111
418 1 9.5754711235 19.8934245192 7.6598589073
7 1 9.3024788475 17.6150832901 6.4259174676
8 1 7.2127164465 21.2238265742 6.582185983
291 1 6.9628830364 20.8489898818 9.3848893511
402 1 10.4951391999 17.2519090671 11.0102691526
134 1 10.5035222668 20.0575622141 11.551555908
55 1 7.2144946586 17.7927094063 15.7012199613
80 1 7.8115268118 19.8998828357 13.6453729375
451 1 9.2631347013 22.0613180616 14.284542725
174 1 10.3063156794 17.2705151975 13.928342691
140 1 9.9558776877 19.4186775484 15.2421223115
417 1 10.6883995247 22.1069731645 16.7537786174
363 1 7.6739227743 17.2686333826 12.6024523974
243 1 6.2198883955 21.9107049923 13.566705838
447 1 6.6043676388 19.0710116637 21.2361287945
320 1 9.0230255549 19.9510939522 19.5408505722
218 1 9.1123219432 17.236007674 20.0520678521
63 1 8.4582645841 20.4148920967 17.2501651655
216 1 10.7047692955 22.200648124 19.3030940956
433 1 7.0503682357 22.164480852 20.06569459
265 1 7.0192204066 17.4444512879 18.5721738089
344 1 10.1137731305 17.8352476835 17.7778669748
69 1 9.542287931 22.3183835152 21.648054862
498 1 9.021642644 19.7076413784 22.1817908318
118 1 11.210162349 18.4634112319 20.6158782511
454 1 14.4071129648 1.8927024586 3.4807617478
368 1 16.2792003851 5.8621550879 1.2889069089
170 1 14.0158472706 4.755725255 3.472948223
309 1 15.7764624478 3.2600798182 1.3033934127
34 1 12.4289320931 5.1618272176 5.5386863682
17 1 16.1228475637 4.1281898142 5.1328973133
42 1 13.4805888127 2.891600912 1.2501133338
496 1 13.5056605112 2.6478188815 5.9073680934
394 1 14.643528465 5.2730124915 7.2466164363
87 1 11.8288883138 4.0710011448 8.0132224159
333 1 12.754669947 1.4431707208 9.2195155174
211 1 14.2910882922 2.1782839809 11.0156119821
25 1 12.3488840042 3.8831073174 10.8255640785
460 1 15.4827585303 2.6618774687 8.779836501
408 1 15.7424639028 1.9305072004 6.5224343898
183 1 13.6438941286 6.0787303487 10.2117340208
146 1 15.6049617892 4.1731463719 11.2091714345
324 1 16.820676158 0.9473662199 13.889445369
420 1 14.4323373186 2.2420557282 13.8621231485
96 1 13.1959426039 5.5436333705 13.0048875377
207 1 16.0769845636 4.3729844436 14.3190421758
360 1 16.5173773581 2.091778204 16.1647216564
497 1 12.9912540885 4.2011252477 15.7946710407
412 1 12.0504169927 1.5511399096 14.9035602487
200 1 14.6863520975 1.9216614088 18.9427143536
287 1 13.8743696979 5.4100745372 20.3351616021
117 1 15.7160335985 4.1356915037 17.6887353051
348 1 16.0070541665 3.4313229513 20.5053271764
85 1 12.0117419318 2.6662040255 18.5214560462
31 1 11.9662031285 1.774672677 21.0591011837
47 1 11.9199922311 4.8008244471 22.1204127232
431 1 14.7896470127 1.1550459354 21.6811782483
226 1 13.5492408087 6.5778319831 1.2235649061
162 1 15.2672513173 6.9925542239 5.2293890037
422 1 15.5712965145 8.7719501248 2.2953973906
428 1 13.7366912281 11.5399886648 2.4794788445
103 1 14.2331771943 8.2406734728 7.3046434595
295 1 14.5520730934 8.9227290442 9.6768824689
208 1 13.3151044539 10.8264692404 10.8550528283
107 1 11.9744935234 8.740455499 9.05744884
423 1 11.9362931906 6.6974899521 7.6559746914
356 1 14.5293928024 11.2298846031 8.0320725975
343 1 11.8393262085 9.9049821194 6.6206624298
269 1 16.6274284501 6.6576618147 8.9683882824
35 1 16.1730515234 11.2182786836 14.380713078
111 1 12.2686437537 8.0772833545 12.0908222105
222 1 13.2439541863 10.4693655922 13.5377144234
133 1 15.6658204387 9.1202081946 12.7983924743
94 1 14.3825094159 7.3335307335 14.142437489
36 1 15.0838985396 9.4488252207 15.7765427457
44 1 12.8230771746 10.6448267123 16.402287255
283 1 16.7783621028 6.4537687286 16.1922869494
492 1 13.374631595 6.8908399295 16.5757126808
382 1 16.6300463116 6.7330724704 11.6007654522
214 1 15.4876298261 7.3200446541 18.7320956749
21 1 16.1644015128 9.8960744838 20.4163098889
180 1 16.7206198652 9.809087428 18.0014300846
467 1 14.8877306594 7.7585927917 21.1559108317
438 1 13.9213110676 9.1246023827 18.370302036
230 1 12.1442166381 7.9169812352 20.4668950072
489 1 13.8639874252 10.4628561961 21.0201009324
303 1 13.1958137274 14.4992814036 4.6427336153
341 1 16.7505684437 16.0260750151 1.2644670744
437 1 16.1895020267 16.3220328127 4.0567036185
347 1 15.3123054511 13.3778135039 3.0901879209
56 1 13.2847747361 14.6847672245 1.1752590848
109 1 15.2290762355 12.8914952252 5.4071220519
125 1 14.3204791685 14.186441223 7.1885848644
421 1 14.264197683 13.9814762562 9.7327198326
1 1 12.7005051361 12.24235571 6.5660223739
461 1 16.2465584129 15.6696947668 9.1893426932
391 1 13.7791753919 16.459085967 10.8939925485
121 1 13.745479144 16.4446407248 7.8822546901
416 1 16.8285141713 12.9360423279 9.6646344635
182 1 11.5875560899 14.9664329995 9.4966843178
425 1 12.3318317856 13.1895734966 11.5863542538
456 1 13.7040771642 12.8410161026 14.8575451612
406 1 12.614051086 15.2696967892 12.9578967115
39 1 15.4477228781 12.6598530509 11.9233964924
462 1 16.3065447435 12.536043051 16.2647464887
493 1 14.7343379169 15.3798484705 15.0454582775
293 1 15.8384672086 15.5690096923 12.5365906848
100 1 16.3563454883 13.7479197183 20.9726229241
187 1 15.2451035744 16.2529881113 20.6790948859
263 1 13.331275771 13.7714626708 20.3364480101
345 1 16.0202615937 14.6596635764 17.7814730222
92 1 14.7732645699 11.8496471396 18.9395337051
491 1 14.6341862931 16.4372989029 17.5332826532
201 1 12.0372841463 15.6207512728 17.8158236783
443 1 13.3924114835 13.7397097268 17.2610896864
452 1 12.2632090201 22.3286915659 4.6589916287
465 1 13.9547518229 19.6659603855 4.3016584137
86 1 16.1781770345 21.2341805688 4.4054858598
327 1 15.2270521537 20.8997888312 1.8626827561
50 1 16.7441544602 18.5969251075 2.9061588564
97 1 13.7687416849 17.0943720948 3.2929930054
126 1 13.2464810583 19.3331327889 9.0558876801
396 1 15.8588659501 18.5576033361 9.7514276497
79 1 14.4812984702 21.3207605053 7.3203497929
388 1 11.9978572571 20.8003559548 6.4667092672
453 1 16.0276816161 17.9778132566 6.7276359769
304 1 12.7803211219 18.107748508 6.4348856291
129 1 15.6093512714 21.160439882 10.0163465622
66 1 12.5716908652 20.1513761141 14.5805099804
212 1 14.9183230896 19.1342021498 12.6241875552
444 1 15.3337134873 18.0032746722 15.11076193
300 1 14.825335906 21.2292191203 14.0770035429
210 1 12.4635520724 17.3154327498 15.9022992142
430 1 14.9989342751 20.2878711505 16.9448533271
346 1 13.6610018708 21.812882206 11.9590641728
407 1 13.3452655873 22.3938050493 17.1976982592
165 1 12.5903905152 20.7983808143 22.2805573365
10 1 13.8367823232 21.1300954077 19.2223876187
252 1 16.2088400369 20.3608888386 20.4715366338
270 1 13.2704479389 18.1265032066 18.7935729047
124 1 16.2225900351 18.5095965491 18.8310566909
459 1 13.5375182094 17.6785993675 22.0995583111
316 1 11.8628574796 19.9052325832 17.4783600378
185 1 17.896263744 3.3559389895 3.0206134715
321 1 21.9078308562 3.2747001093 1.5288627486
106 1 18.8482384805 4.7916290379 4.9914584922
289 1 19.6518006647 5.5962592877 2.1251148324
221 1 18.355541691 1.4934448422 4.9501631591
225 1 21.4480645983 2.4361085178 4.8348837949
477 1 19.7808512193 1.6100413453 1.4419338829
275 1 22.021835701 4.8029854197 4.2244170098
355 1 17.2149265162 1.1805176446 2.0739776521
9 1 18.1906738146 3.9754548791 9.9506916481
102 1 21.8901301552 4.9562512808 6.6583710017
209 1 17.2693981191 4.2196510897 7.6520010123
191 1 21.1393574966 4.2653833645 9.4444141003
156 1 19.1974476245 2.909416001 6.8482653441
480 1 19.6931351511 1.144740076 9.4058166981
144 1 21.4714302781 1.2907482885 11.2288225901
319 1 17.0100201457 1.8262917508 10.4210422226
127 1 19.3860232663 5.6267768826 10.8205518775
350 1 21.8072393675 2.21926808 7.4777037693
57 1 18.5353182618 4.2897602098 15.7017348548
74 1 19.2597241974 1.2994337818 15.4428217538
378 1 19.7834762867 4.7850842941 13.5639779196
123 1 17.6167241301 3.4479770732 12.695156574
424 1 20.3910722548 2.5688111271 13.5002123645
204 1 22.0930802022 4.7616362389 16.8526461358
361 1 21.5706680022 1.6504624995 16.0240823851
188 1 21.5598460394 5.3529336799 12.2142381585
393 1 18.967389804 0.9129582239 12.2348031633
75 1 20.6718634388 3.5089938974 19.4971881536
318 1 18.8202918665 3.1793543325 18.0211977816
54 1 18.491124945 5.4162790553 18.4377594444
24 1 18.232910478 3.9157254963 21.6715653408
167 1 19.4417378623 7.7505976847 5.3464942722
59 1 17.24115813 9.0629665863 3.9640029732
476 1 19.8475273882 10.0817146151 2.7091934409
398 1 21.988993735 7.7864843492 5.7998920673
193 1 22.321954195 11.2138358431 2.5941607936
484 1 22.0359085577 8.1558626264 3.1755674951
101 1 22.2029156242 10.8583634064 5.3210270896
143 1 17.0937716427 11.4203046181 1.3650366863
405 1 17.8796614754 8.4595169314 1.0102118206
150 1 17.0596659462 6.3303102361 3.6979542985
131 1 19.9352219198 10.3198574854 6.9692173307
254 1 21.3668553157 9.253419692 8.5421239671
115 1 21.3101961632 7.4881378039 10.3596418604
273 1 18.3548863946 10.5549549263 9.5280512568
334 1 18.6567796561 8.1007113695 9.9907094484
400 1 19.1340932706 6.3550040327 7.6699551132
475 1 20.7242223521 10.0457255585 11.0472956381
138 1 16.9912210966 8.9319675504 7.1321189132
116 1 17.7419437482 8.9450655642 15.0549768434
152 1 20.0987266136 7.6396470493 12.7097738914
84 1 19.0306468583 10.6974021637 16.3079117983
93 1 20.2554179105 9.9325061818 14.068677983
240 1 17.5829745825 6.4449587672 13.813375756
377 1 19.8471102231 6.6147606898 16.149670516
315 1 18.3665602232 9.4399524189 12.3961892045
371 1 22.280585264 9.5131231223 15.879079535
292 1 22.1152875145 11.412264124 12.3114513925
379 1 21.1150490015 6.305877923 19.4915996249
294 1 20.7700550124 7.0948958121 22.3412716616
354 1 18.2454794374 7.9922953903 17.9879862
141 1 20.0671735271 9.0299612531 19.3947353408
274 1 21.1551233706 9.7665761456 21.9183492936
198 1 18.3922866116 7.0256266496 20.5363358547
385 1 18.5999518545 10.7213347873 20.8385853252
280 1 19.8637954736 12.5977696195 4.3521404826
11 1 17.4479536972 14.1610998135 6.1318136381
158 1 19.7373359437 12.4503430483 1.330592523
342 1 18.6401199803 14.3921275511 2.8126107928
119 1 20.5242304259 15.5167261213 5.493730358
279 1 20.7300580644 15.9782193529 1.977862597
358 1 17.3726187946 11.6411442397 3.9153095411
429 1 18.1144058288 14.9971015359 11.0185192084
404 1 19.1372857471 14.1217804101 8.2620371463
235 1 21.1912013227 12.9418091912 6.8133056789
178 1 18.3012787872 16.516482505 6.8019023293
197 1 20.9901217384 12.5582572308 9.6471523856
490 1 21.6232955134 16.3263942201 9.9756775321
455 1 17.5478123229 11.66676309 6.6216628628
305 1 19.3050522396 12.16911879 11.565004398
147 1 20.8681008639 16.7599353238 7.8329921804
473 1 18.4119761511 13.1965073647 13.5984111316
248 1 17.7080825923 15.6982576799 16.3218490003
262 1 20.6937853641 14.3196524673 11.8764636464
301 1 19.5565297588 15.6273007503 14.5659757404
23 1 19.0902309186 13.479158525 16.4914539641
357 1 21.570112872 12.8415218689 14.4148072077
457 1 17.6250892013 16.9295990326 13.532319216
61 1 21.0850543407 14.4627788421 18.7383015299
203 1 18.5881757328 14.7700609853 18.6532871736
181 1 21.6655488837 14.2084239738 21.3288160753
463 1 21.7656599985 11.9288227673 17.2406944948
439 1 17.455464015 12.513387103 18.7573082875
365 1 18.8066476549 14.7434466924 21.4089737103
171 1 21.1989528313 11.8748019761 19.8514211279
176 1 20.2954325714 16.3197786071 17.0310309407
299 1 20.5266046133 18.740908478 1.4145882518
362 1 22.2627073176 17.4484666493 4.3233980239
177 1 18.408905888 20.617489283 3.1186905862
98 1 18.2429163505 20.0903064949 5.5744192779
317 1 19.8934888295 17.9224900878 3.9393026551
448 1 21.138869928 21.9335456245 3.6945435098
494 1 20.3308244889 19.2938547497 7.799343758
58 1 18.3925646549 20.5294696649 10.6547313997
337 1 20.6705998022 19.2072642486 10.6133448792
14 1 18.7055754485 17.1997054314 9.5081415199
91 1 21.9808352645 21.2003235108 8.501774388
298 1 17.3911987838 22.2363969168 7.8560177007
247 1 17.1973987029 19.7422536212 8.1946334925
306 1 20.7226318267 21.413395411 6.2963513052
76 1 19.9704968259 19.731049069 15.9444769541
434 1 21.5200574442 17.2281065701 14.802570676
67 1 20.1869470767 19.248493147 13.3227699926
20 1 21.8399741246 20.967793503 14.2002877606
500 1 17.7858441357 18.5104040943 16.2993402137
199 1 17.6829196184 19.9467790199 13.9351918345
186 1 17.5149759762 21.0167378681 16.5947389483
105 1 17.9137885576 18.4565467846 11.709920412
149 1 19.0297890769 19.633100832 19.0588927613
335 1 18.2739447545 19.5030222069 21.8943292083
52 1 21.503494216 18.6040917513 17.6750366201
30 1 21.855676335 19.0841917533 20.2291150903
112 1 20.8629315868 21.3795966706 21.0989174768
413 1 17.9353921432 22.394192383 21.2827094162
264 1 17.1699195139 22.247501747 18.5854507294
367 1 17.9165462086 17.1446606758 19.804722157
173 1 20.1555490754 22.2860576212 18.5308444728
