ITEM: TIMESTEP
10000
ITEM: NUMBER OF ATOMS
8100
ITEM: BOX BOUNDS pp pp pp
-17.5989711508 35.5844723882
-17.5989711508 35.5844723882
-17.5989711508 35.5844723882
ITEM: ATOMS id type x y z vx vy vz
4988 1 7.2752 1.62187 4.89363 -7.15797 1.28692 9.13599
5104 1 -16.446 -16.0674 -4.71033 5.53697 -7.99951 0.709945
1310 1 -15.3226 -15.5375 -16.3488 3.26009 -7.62439 -1.29866
3634 1 -11.7405 -12.3304 -14.9761 3.71933 -5.5411 -5.50826
140 1 -11.3721 -15.6008 -15.8976 8.59181 1.22398 -0.011997
7788 2 -9.5079 -15.9289 -17.0177 8.10085 -5.31202 -4.68959
7460 1 7.34444 8.92022 -7.84476 1.64604 -10.7043 2.72258
680 1 -10.7522 -16.1521 -13.1827 1.18662 9.55332 6.24607
1403 1 -4.2435 -16.9072 3.56421 -4.02848 6.65954 -1.00675
3636 1 4.24762 -7.21506 -17.5078 -1.07912 -1.10091 -1.09474
7590 1 7.82922 -14.392 6.0074 -2.12708 0.987576 -8.0586
1588 1 -2.67191 -14.437 -16.7525 -6.01111 -12.3928 -1.38224
778 1 -5.60196 -14.4494 -14.8 -4.15667 -1.78614 4.94265
3075 1 8.70719 3.26612 -16.5672 2.42029 1.78052 -0.438336
7197 2 -2.59755 -14.253 -14.0102 0.0767038 7.76366 2.62345
1236 1 -0.264827 -13.9434 -15.0123 3.39703 3.29926 13.8496
595 2 0.603248 -16.2893 -15.4362 -8.78117 1.75773 -1.57113
6993 1 -8.17413 1.0513 -17.4534 -0.359089 -2.66077 -4.87325
352 1 7.19661 -16.4674 -4.86792 10.6883 2.96349 0.976037
4714 1 1.10435 -11.7037 -14.1823 -2.46682 4.68237 4.27879
5150 1 7.91088 -14.6295 -2.32688 -2.02827 -4.32436 4.35904
854 1 6.57029 -15.1031 -16.4295 -2.06517 2.68015 -6.27666
7774 1 -15.2034 -12.5932 -15.2624 -3.13033 -5.68969 11.922
6301 1 8.68836 0.904517 -11.2181 -3.24755 1.08068 -11.1344
5797 1 -15.4026 6.94918 2.75747 5.57394 -4.05185 -2.31103
475 1 -17.449 -8.09497 4.06367 -4.59352 3.61859 -7.58894
4920 1 8.5453 -12.2387 4.7827 -0.704841 -8.49878 -9.12224
6579 1 -9.34194 -13.62 -15.8584 4.25084 -2.09696 9.87719
5702 1 -14.7321 -10.1352 -14.189 4.2644 2.6525 8.84175
7063 1 -11.0426 -11.1808 -17.5293 -4.47222 9.41002 0.55031
2530 1 -8.82664 -10.8019 -15.2196 6.90364 0.925536 0.134128
2092 2 -7.1143 -12.4087 -15.978 2.30448 4.07214 -5.39682
6611 1 -4.17628 -12.3616 -12.8222 -4.31288 6.87635 -7.28233
2801 1 -5.64228 -10.4479 -14.8974 -3.00916 -1.04761 -17.9038
5196 1 8.42216 -5.51081 -9.07508 5.83727 -9.18187 -4.2813
4410 1 -17.4126 -12.9423 -16.4539 3.44765 0.341769 -4.39409
5898 1 -6.83433 -5.39749 -15.5896 -2.12918 3.91269 -2.64147
4813 1 -2.69677 -12.0113 -15.5718 6.24722 0.33984 0.446908
3747 1 -10.6224 7.88507 -5.2087 1.5878 7.64646 5.32117
7310 1 -0.843365 -10.3948 -15.6847 -2.95166 3.08176 9.73521
4216 1 4.14193 -15.1655 -10.9203 1.12012 3.30411 7.25983
3313 1 7.19352 -9.95699 -14.5902 -0.195241 -5.82555 8.79688
6822 1 7.56954 -11.8508 -16.6719 3.23602 -5.2716 -1.84773
2140 1 3.15797 -12.2892 -15.7465 4.99268 -0.426932 6.50364
5639 1 -16.3394 -7.96425 -14.7135 -1.65588 6.35099 -4.80137
5101 1 8.8531 3.32288 -10.3503 -5.39707 8.02796 -4.69767
6033 1 -16.8272 -3.82628 -4.10304 -5.44904 2.0384 4.2637
6829 1 -11.7575 -9.76836 -14.9317 -9.23609 2.02136 -9.4202
190 1 -13.0988 -8.14409 -13.3531 -2.49759 -1.83838 3.6642
6974 1 -9.17602 -7.20621 -12.726 0.287509 0.358759 -1.42219
3109 1 7.33073 4.42013 -14.5943 6.59164 3.98365 1.45021
396 1 -8.61743 -8.43481 -14.9452 0.525932 4.74928 2.04276
3362 1 -7.38474 -5.23897 -12.7561 3.78424 -2.05517 -2.22484
7803 1 -9.58074 -4.99872 -14.5401 2.40004 -8.88961 0.689681
7770 1 -6.15598 -7.57768 -13.5329 -17.7038 0.792346 -8.72587
2051 1 -3.57361 -6.64349 -14.494 -2.31835 4.53732 -3.09473
3400 1 6.51943 -0.949134 -17.1852 -0.778528 -4.89014 5.66382
1554 1 -0.469037 -7.73659 -14.9365 -7.07583 4.08153 -8.38192
1591 1 -1.04026 -5.09084 -15.1556 -5.22556 6.39176 -5.69868
3999 1 1.77715 -6.47787 -16.3017 9.2978 7.38853 2.20644
2164 1 -13.678 8.14108 0.911541 -3.52864 6.22492 -2.412
7878 1 8.46163 2.46177 -5.87381 -6.67687 4.86055 -6.14789
1605 1 3.76171 -7.56054 -14.6149 5.26195 2.60249 0.0394469
1425 1 4.04339 -10.3562 -13.9619 2.8219 -1.12166 3.12571
4690 1 -3.31159 7.64986 -17.6001 3.82971 12.3251 -3.49211
3241 1 6.5632 -7.63049 -15.9223 5.61198 0.0420884 -3.4632
2473 1 5.92009 -7.76173 -13.1092 -5.42543 -2.8675 8.61669
2431 1 -9.22639 -6.27167 -17.1393 11.7544 -6.90581 -2.89663
508 1 6.16462 2.64558 -17.1794 10.2012 4.50864 3.34728
7470 1 -14.7722 -2.6461 -13.4878 -9.50463 4.07828 4.90183
6256 1 7.90872 0.856216 -15.8398 -10.1071 -0.831227 1.97883
8045 1 -15.5027 -7.59934 -12.291 -7.09823 -2.3745 0.0216463
4577 1 -15.5825 -5.46451 -14.3487 -0.985519 -10.3457 10.6929
7836 1 -10.6248 -1.77193 -14.9784 -4.84682 0.713738 4.13242
5772 1 -17.1549 -3.10933 -14.8966 0.730022 -7.95555 3.50464
2976 1 -8.66505 -3.57571 -16.6734 5.5587 0.250006 7.3778
5362 1 -4.60675 -4.39573 -13.1216 -6.96592 -0.156952 -0.560185
4084 1 -5.80289 -2.92411 -17.249 4.44231 -3.27989 0.186236
2533 1 -2.13649 -3.00245 -12.232 1.2629 -1.36924 -8.85012
2381 1 -1.98821 -5.47612 -12.5838 -5.14141 -9.63654 8.60681
3490 1 1.37344 -3.88888 -16.1343 0.178933 -6.01966 -3.11645
2974 1 -0.857481 -2.5743 -14.5542 -6.02025 -5.2893 -2.79882
7656 1 8.22266 5.9554 -17.5423 2.55194 -0.0200363 -6.91124
6952 1 3.08192 -3.84098 -13.9245 -0.412593 -7.7442 1.88279
2437 1 -7.51277 -16.6716 -15.3258 0.946598 -3.63487 4.52242
38 1 5.8144 -5.19255 -14.1624 -3.77669 -5.22064 -1.36163
3957 1 -5.78813 7.20968 -7.38109 3.34582 -7.60006 -13.3988
6398 1 8.5029 -4.82437 -15.2537 3.66645 5.38498 -2.06376
492 1 -17.5466 2.55191 -13.1539 4.55075 0.676614 -1.87777
5391 2 -15.7531 -1.24378 -15.1371 -2.00551 -0.339288 -0.54115
6415 1 0.517061 -14.7101 -17.2127 -0.170508 -7.85836 -0.504731
7793 2 8.48464 -2.91359 1.00245 0.304825 0.794856 1.96372
852 1 3.8636 7.17766 -0.923834 -6.90446 -7.8863 -4.61186
8057 1 -13.5021 2.22158 -15.836 3.73408 -4.51944 -0.637506
6577 1 -12.1523 -3.41731 -16.4026 -3.92239 -5.1374 -3.82561
5238 1 -2.35769 -8.01592 -16.8611 6.09843 -5.05408 3.06858
7421 1 -13.2821 -0.802344 -14.6839 -2.80505 15.5925 -15.8966
5823 1 -8.14237 -0.963778 -15.5447 -9.44243 4.41564 -19.5808
4889 1 -6.47388 -2.92999 -14.6117 -9.56173 -1.07387 -5.12837
1741 1 -2.68174 0.274856 -14.2361 5.49217 11.2128 -1.11538
4783 1 -2.40711 -0.383189 -17.0428 -7.11136 -5.76071 0.856421
1868 1 -0.577441 2.81771 -13.428 5.42224 -5.07161 0.54802
4398 1 0.0857415 0.484095 -15.3668 -7.78275 -6.31006 -2.04318
719 1 -3.59272 -2.19828 -14.6836 -2.68867 8.96313 10.1775
1047 1 1.64272 -1.71245 -14.4763 0.649862 5.95517 1.03843
7338 1 5.32709 0.614485 -15.2209 1.43895 2.55429 -11.161
562 1 2.46306 1.11825 -15.6926 -5.48085 3.75434 -1.41975
1278 1 7.79329 -2.71584 -13.2545 -6.89163 5.71306 -2.92994
5387 2 6.9591 -0.795125 -14.4319 0.941072 -6.91644 4.6552
7530 1 4.9302 -2.15377 -13.5605 -8.08418 -0.484398 3.98305
6621 1 -2.14458 5.83894 -15.4024 -8.16908 0.496809 0.145183
5832 1 -14.5716 4.94037 -16.7958 6.81467 -1.40373 10.2091
60 1 -16.0317 3.00049 -15.809 -1.92623 -0.273751 -4.63745
853 1 7.79744 -2.83424 8.81901 -1.57809 7.07825 5.23333
4487 2 -11.0551 2.97525 -15.4471 3.1944 -7.70135 -1.00478
4938 1 -3.04262 -2.72624 -17.2055 0.951227 -3.36054 -0.38209
5606 1 -10.0649 5.119 -15.3666 13.7121 6.60668 2.88337
845 1 -12.9241 4.49334 -14.3171 -2.14044 -2.72205 9.13054
4360 1 -4.97957 1.34452 -16.5971 -9.43266 -7.07284 -11.7245
4689 1 -8.54666 2.17088 -15.0017 0.342936 3.51629 -3.89927
4483 1 -17.4692 -16.8567 -15.5693 5.29486 3.8906 1.09091
5052 1 -7.91568 7.12874 -14.8204 9.44526 2.00717 0.743671
7115 1 -7.30033 4.36986 -15.145 7.10049 9.12927 3.59966
6270 1 -2.53061 2.75531 -15.5659 8.50801 6.69971 3.19189
975 1 -2.03341 6.75191 -12.7484 -10.0711 -4.82714 12.1472
162 1 0.252072 3.24996 -16.1158 7.71692 1.53543 3.98323
2062 1 2.20204 4.01775 -14.49 7.75496 -2.43277 1.63396
779 1 4.64197 3.36565 -15.0374 6.25746 1.58546 2.17354
155 1 7.4245 1.43844 -13.4784 4.32061 16.0343 7.8583
2476 1 7.82123 6.72193 -12.4687 -8.61879 7.53182 -6.31197
5595 1 -4.44889 8.95554 -8.94412 3.31064 -13.9972 -0.649299
4901 1 -15.5569 7.94648 -16.3035 -0.526905 -5.06188 2.96891
2394 2 -13.8449 6.63296 -14.6836 3.0102 0.02593 -6.74405
2279 1 -16.2112 7.71041 -13.553 2.0667 1.39408 -1.71346
926 1 -14.7928 -2.85018 -16.8938 -2.98557 -0.104357 3.56794
6801 1 -12.9139 7.40195 -16.7794 2.94889 11.8511 -14.3441
6166 1 -8.25138 7.83272 -12.3169 9.20319 7.65361 0.818019
5900 1 -16.6034 -16.0169 6.16612 -2.37446 -0.303588 -2.75634
6041 1 -8.79869 5.24722 -12.5941 -7.2388 -4.52235 -1.75515
5536 1 -4.54603 5.7065 -14.2265 0.837948 -1.29061 -3.80074
4054 1 -4.37409 -11.6561 8.70799 1.86341 -5.75681 -4.01889
87 1 4.54628 -12.345 8.58843 -4.16807 12.1615 -3.67689
4068 1 -5.68159 8.92251 -16.5669 7.61657 11.7633 -3.51309
566 1 0.262727 6.45746 -16.0324 -7.42654 -4.35231 -2.77137
7898 1 -7.76135 -15.4383 -12.9876 11.0319 -10.8146 -15.4103
15 1 6.50908 8.05277 -17.4613 0.467196 -8.3868 -4.76705
3035 1 3.96239 5.39888 -16.0659 3.31609 4.48388 8.40221
228 1 -14.8712 -0.0498217 -17.1714 -2.00989 11.2461 -3.50807
5928 1 -15.0692 0.268106 -1.49418 -3.50945 -3.39012 -11.1867
3084 1 6.73232 7.166 -15.1683 5.41049 0.193374 -6.43464
369 1 -16.6684 -17.0695 -11.9375 -20.8496 -4.59091 -0.699872
7073 1 6.54866 -3.10177 -0.474412 4.41934 -3.33713 1.33086
2626 1 -13.4658 -14.6576 -14.6013 -15.216 11.5024 2.39327
2880 1 8.3502 -13.6223 -14.4006 6.18159 -9.14976 19.8712
3132 1 -11.8013 -14.4185 -11.6364 3.40384 5.24209 -0.696218
5365 1 -9.58935 -13.9136 -9.7078 3.91388 4.27135 6.43137
5399 2 8.23897 -7.62856 1.01207 1.50509 -7.9024 1.00601
4680 1 -4.95066 -14.8339 -11.8886 -6.29597 1.60632 7.3345
1816 1 -3.70362 -16.3804 -13.4128 -7.17251 -6.46743 2.25991
7914 1 -7.21905 -14.2207 -10.6028 -5.41269 -3.2257 4.47628
2493 1 -13.474 -16.6355 -4.15196 5.77722 -1.01634 -5.50867
7098 1 -1.16946 -14.9175 -12.5099 1.84133 -0.660715 -4.86018
2352 1 -0.068714 -13.9882 -10.101 -1.32314 13.1233 5.6345
5611 1 1.46295 -14.2593 -12.548 4.27343 5.82716 -2.69538
2869 1 -7.43403 8.89276 6.96151 5.624 -4.01625 4.89189
5635 1 5.34874 -15.4658 -14.2144 -0.554704 -6.48224 0.144723
1514 1 4.86344 -12.7799 -10.924 10.4239 9.06672 8.3735
1659 1 8.67861 -16.7575 -7.99314 13.4771 3.64664 -5.88054
355 1 -2.57703 -16.7974 -7.37872 12.8996 -12.8358 3.37326
4909 1 -2.23836 3.97867 7.61654 -7.86104 -3.02932 1.2786
5883 1 -17.2742 -13.8284 -3.77298 3.90477 -10.5962 -1.02632
5990 2 8.34764 -11.893 1.8288 -3.944 2.97229 2.17457
539 1 -17.4815 -11.9323 -13.5926 -8.91082 1.87291 -9.97013
7732 1 -14.0047 -12.4758 -12.7122 5.58276 5.3135 6.52045
2793 1 -14.8804 -14.4807 -11.0526 7.78584 -5.78044 1.55651
4858 1 -11.0567 -11.3425 -12.5631 0.627511 11.5196 1.30128
4585 1 -9.87629 -13.6476 -13.3533 -9.30012 -2.76678 0.415334
7849 1 -10.7181 -11.1234 -9.58006 -10.4475 2.88775 -6.23678
1655 1 -4.49966 -12.9145 -10.0089 10.5923 -0.846714 0.865218
1669 1 -2.13351 -9.64939 -11.9753 2.91309 5.40626 0.256514
2682 1 -1.23018 -12.6238 -12.9264 1.23898 1.45256 9.7211
5941 1 0.71479 -10.8062 -11.5723 1.8143 11.2845 -4.24339
8090 2 -0.615323 -10.0962 -13.4495 5.63483 2.92481 -3.67591
4667 1 2.6109 -14.8555 -15.3228 6.77086 4.9768 7.60676
2036 1 3.64247 -13.2977 -12.9035 0.0941853 -6.9119 6.18599
1702 1 7.63434 -12.5379 -9.83727 2.85802 0.416019 2.59226
7701 1 5.91392 -12.5148 -14.1204 5.5187 9.60536 0.560894
6065 1 6.79203 -15.7763 -9.82987 1.30461 -5.65172 -0.244432
2917 1 4.48573 -8.43244 -8.07523 5.43741 1.36637 11.0048
2252 1 -13.0789 -10.6339 -11.0101 6.83765 -6.15388 2.34907
3131 1 -15.2284 -9.32229 -9.85716 -7.89304 -2.28823 0.976882
7902 1 -16.5447 -6.5803 -10.0347 0.404691 -2.80926 1.92397
4278 1 3.08125 7.43766 4.05574 -7.64842 -3.59356 15.3933
4230 1 -10.8314 -8.93982 -11.29 -1.49344 -0.413782 3.22967
5681 1 -12.906 -6.57218 -10.3547 0.205806 6.34798 -0.29812
3416 1 -11.5256 -5.92969 -12.5803 -5.90023 2.6032 0.203872
6998 1 -7.02227 -12.7906 -13.1247 4.6537 -4.54622 1.72425
7934 1 -8.11602 -9.83578 -12.8275 2.34307 -6.3683 15.6653
558 1 -9.51501 -5.27269 -11.0043 -3.11758 5.86828 -5.31175
5368 1 -5.581 -6.32838 -9.39031 2.53233 0.993917 7.12367
4686 1 -5.07249 -10.029 -11.8787 7.44449 -2.55373 1.36746
506 1 -7.58172 -3.7631 -9.96556 -12.0741 1.29992 3.6181
3126 1 -2.89596 -9.42562 -14.2727 -3.65168 0.391108 -10.6382
7760 1 1.27895 -6.02989 -13.6429 -4.23049 -3.87523 -0.471489
2809 1 -0.0589064 -8.07066 -12.1173 -3.42115 -5.39685 -3.72156
7943 1 3.34945 -8.99476 -11.8841 -2.26662 -3.05882 7.93245
2139 1 1.8739 -9.08253 -14.3065 -2.34645 -0.690787 -1.12756
5874 1 6.25328 -7.89278 -10.3641 1.35951 0.525863 -0.24048
1462 1 6.08042 -10.5619 -9.16392 9.97649 4.21491 3.59235
6652 1 -5.89116 -16.4355 -10.1038 -16.5901 -1.58413 -8.79138
3924 1 -17.0251 -4.10776 -12.2844 -10.6886 -0.747037 10.3863
7106 1 -17.091 -1.21757 -12.7747 0.641135 -3.02259 1.94904
3139 1 -13.0897 -5.05208 -14.504 -6.21675 14.2919 6.08918
5759 1 -14.3163 -5.03684 -12.1759 -1.68732 -0.699954 3.19675
158 1 -12.01 -3.07823 -13.27 -8.84949 -4.51273 -8.07592
1623 1 -12.2182 -3.45976 -10.8288 -1.26138 -6.08597 -2.73519
3938 1 -10.134 -2.30424 -8.90586 -11.5382 0.665022 -2.57266
5733 1 -6.35032 -2.15738 -12.0667 -3.67702 2.64917 -4.51301
6445 1 -4.34381 -7.10073 -11.5465 3.28759 -12.2619 0.0603959
4930 1 -1.19225 -3.73382 -9.89447 -2.42826 -0.593984 -1.08115
6528 1 -2.74119 -6.0682 -9.84212 8.28205 -0.850584 11.5339
4729 1 1.80378 -3.63514 -10.072 -2.00203 2.56678 -1.20205
5334 1 5.61188 -5.85335 -8.79517 2.68115 -8.82177 1.8607
977 1 0.728017 -6.00537 -10.7412 -0.163308 -3.95965 4.55159
2369 1 4.38948 -3.86601 -11.3688 -7.05208 -3.16169 2.97236
3401 1 3.58898 -6.48146 -12.0699 1.8725 12.329 -0.00841487
4640 1 6.84207 -3.79365 -10.4362 3.94177 2.14976 -0.295315
153 1 -15.0132 0.952725 -14.0413 1.08121 0.699535 0.722749
6619 1 -15.388 1.46257 -11.5023 1.7435 4.44173 -0.901643
867 1 -13.6662 -0.555592 -11.5659 -1.76491 10.0855 5.43745
326 1 -10.6527 0.758243 -13.8916 4.13511 -3.59438 -5.80416
117 1 -5.71987 -0.318312 -14.3157 -7.40499 4.27744 -2.92125
1674 1 -8.3011 -0.0756078 -12.8223 -8.60365 11.0801 6.48796
1688 1 -9.13076 -3.12991 -12.4251 -3.0864 -1.23318 -0.379062
4114 1 -8.11074 -0.869647 -10.069 -3.49329 -0.880113 -3.28583
3743 1 -3.85801 -1.12943 -12.2084 -2.39848 7.91645 -4.95924
4948 1 -5.41709 0.992058 -11.7253 0.735587 -6.79495 -6.1587
5424 1 -0.417947 -0.498952 -12.9295 3.40887 8.46762 1.14328
753 1 -2.35231 -1.50174 -10.0097 0.624356 -4.44694 -5.37891
2673 1 -0.746827 0.801447 -10.353 -9.3759 8.64759 2.76407
5944 1 0.634124 -3.4666 -12.5869 9.55685 14.0668 2.29926
7528 1 0.111887 -1.57182 -10.7269 -5.00356 5.91118 -11.6527
6742 1 2.9905 -1.20265 -11.6497 -9.48386 5.762 -2.06544
7653 1 5.76004 -0.244773 -11.8314 -12.944 5.94071 5.27068
1596 1 -15.3464 8.30696 -7.41516 -0.408604 -1.92577 -3.34885
3786 1 -15.9987 -3.22445 8.00683 0.110613 2.24057 -3.95518
2367 1 7.57452 2.56428 7.62725 -5.96505 1.67226 1.67358
139 1 7.57498 -5.49625 -12.372 -1.98474 -12.4866 -9.26444
6600 2 -15.1078 3.08404 -13.1967 2.46336 -6.84195 4.66381
170 1 -16.0288 5.32625 -14.3443 -13.5995 -6.13946 -10.0903
1563 1 -16.4629 4.6053 -11.4947 -4.87302 0.173629 4.40499
2024 1 8.82845 8.00721 -6.04323 -7.36635 -0.250716 0.514759
1735 1 -12.8061 1.94599 -12.815 -4.64535 -3.62202 11.4954
1296 1 -9.52501 1.38385 -10.6754 11.1476 -11.5233 -3.80687
4377 1 -13.709 3.91556 -11.545 0.448057 -2.10077 1.8553
4300 1 -10.26 3.30631 -12.7215 -11.2328 2.73949 -4.40494
24 1 -7.50903 2.59985 -12.5127 -4.6984 -3.794 -4.75172
8094 2 -8.89385 3.88339 -10.6225 3.53727 -0.811441 -5.66572
5039 1 -5.2878 2.67237 -14.1592 1.87859 -7.0047 -9.55297
5412 1 -6.00099 4.83375 -11.6324 -9.48336 -1.78496 -3.83849
6800 1 -2.79433 1.57933 -12.0505 -3.32797 3.44153 7.31638
6014 1 -2.86554 4.09389 -12.6402 5.67317 -6.73575 -0.0263305
3467 1 0.0963878 5.27934 -12.9313 2.75202 -11.193 0.405564
1001 1 -1.18424 3.27833 -10.682 -2.15755 -0.829474 3.68328
1517 1 1.65933 2.62359 -11.5757 1.23136 2.53368 6.45395
4071 1 3.33625 1.0248 -13.5058 -2.0805 -1.01789 3.09376
297 2 3.70479 0.986095 -11.2855 -3.72946 -0.0171542 -3.82418
4021 1 4.10041 3.27373 -11.9798 -1.42793 -14.8696 -4.54254
3488 1 6.29457 2.1273 -10.4299 -0.383281 9.44949 6.44099
6844 1 4.73202 -16.6247 -17.1418 6.53987 0.997999 4.01939
4248 1 -16.3037 -6.82036 -16.9213 1.38556 2.33337 7.30184
1660 1 -16.516 7.28991 -10.8072 4.25955 2.85624 3.3486
6082 1 -11.3232 7.74136 -10.7788 -4.48392 -0.725401 -2.2138
1827 1 -14.4756 6.37292 -12.203 8.26963 -1.05152 -2.20587
5516 1 -11.296 3.96039 -10.1816 -10.1519 7.32463 4.9761
970 1 -11.8442 6.3093 -13.0472 -2.08427 1.83014 -10.1465
4282 1 -9.36338 6.22343 -9.76959 -3.32294 -0.366153 -0.816718
1082 1 -13.1743 5.84151 -9.68118 -9.33747 3.93369 11.5401
2269 1 -4.2639 5.72351 -9.47515 -4.51612 -0.466049 2.1773
1119 1 8.92969 -9.7808 -9.64556 -1.32514 -3.80474 8.04399
7014 1 -7.32813 4.96492 -8.57346 -6.74666 -2.0061 8.54056
4401 1 -0.907352 5.75442 -10.3085 -1.49555 16.9574 0.0284471
1312 1 2.06478 6.89137 -13.8806 -9.90674 3.09365 2.31153
4153 1 2.475 5.34477 -11.1213 -7.61417 -6.12637 14.2453
5436 1 1.09309 7.5337 -11.3527 4.8702 3.37994 1.65335
2721 1 4.87175 5.67245 -12.7665 8.52515 -3.13669 -3.911
2579 1 -16.3673 -17.3192 -1.95639 2.89153 -4.06176 -4.39977
6011 1 8.68929 -8.16959 -11.7087 -4.44038 3.4203 -10.2349
3156 1 6.9176 4.19941 -12.1262 2.32632 -3.4098 -3.38624
1154 1 2.42088 1.69955 8.80869 0.509675 -4.25856 12.0398
4758 1 4.24949 -17.1666 7.41444 -8.99617 -1.69922 -2.75582
2126 1 -13.8949 -16.759 -11.9735 9.75651 4.25717 2.51523
6490 1 -12.7588 -13.4416 -9.42553 -0.160002 9.99114 -1.63031
394 1 -16.0832 -13.3504 -6.32725 -3.93922 9.2664 4.11191
1509 1 -12.6029 -16.2116 -9.1967 1.29261 -4.62377 1.11064
6227 1 -8.64164 -11.918 -7.76016 0.0640741 -0.945084 6.64663
250 1 -11.4807 -15.5998 -5.60635 7.60962 -1.78368 -7.48865
2325 1 -15.9113 -5.85333 7.42016 2.73047 -2.12715 -3.68017
7185 1 -8.97118 -14.1055 -6.4015 -4.64719 -5.18581 5.95384
2802 1 -2.31518 -13.7661 -8.1224 -4.49097 -6.25174 0.803414
6792 1 -4.4913 -13.6961 -6.38201 2.8659 2.88128 -12.6006
1609 1 -5.49866 -16.5323 -7.33801 -9.15687 1.73158 -4.23636
4059 1 -2.97292 -15.3728 -10.1871 -2.90935 -4.80861 9.76171
2563 1 0.376242 -14.8281 -7.76153 3.38996 5.89298 1.85649
7328 1 -15.6642 1.09388 -5.14803 -17.7275 0.806874 -3.68094
7374 1 2.2433 -12.8916 -10.437 -10.832 -4.56567 -9.88979
2204 1 4.17405 -15.4531 -8.03485 2.16435 -4.6926 1.62302
3831 1 2.35582 -15.9537 -6.27324 -1.80908 -4.25865 -11.4396
5543 1 -4.32138 4.69418 -16.9277 6.58163 -1.03687 1.83839
2611 1 -15.8379 -11.7088 -11.0695 -3.29479 10.9446 2.53016
7195 2 2.29878 -17.3338 1.18609 -3.90051 -0.264188 5.1748
3824 1 -16.245 -10.9812 -7.98956 1.22582 6.33424 7.05206
6997 1 -10.5019 -10.004 -7.21863 -8.26822 0.292079 0.120247
7725 1 -11.166 -12.9341 -7.56156 3.23414 5.64815 1.10165
6701 1 -13.8241 -14.7077 -7.59089 -4.04335 -5.78997 -9.91645
2636 1 -6.34529 -13.9948 -8.4039 -0.370846 10.5606 1.37515
7011 1 -9.81488 -11.9359 -5.35098 -4.51521 10.1875 8.59342
7924 1 -1.8677 -11.4461 -9.86863 -6.6182 10.9729 -3.37422
1982 1 -3.94801 -8.82328 -5.55998 0.399122 10.8561 4.90533
4580 1 -8.29902 -11.6821 -11.1003 9.24463 -6.39087 -4.88979
7402 1 -6.16621 -10.77 -9.18929 14.9637 -10.8384 -4.24997
3973 1 -0.208082 -12.2538 -7.6362 4.37978 -1.72075 3.45019
7750 1 -0.975733 -8.52863 -9.48373 -1.4703 1.56762 6.62766
5087 2 4.02144 -10.9879 -7.05838 4.69563 -4.74375 2.48021
2355 1 5.23865 -12.6711 -8.3704 -3.42034 6.6774 9.7741
3058 1 2.81567 -13.2049 -7.37015 -2.19997 -0.540404 0.204868
7882 1 3.33572 -10.736 -9.61471 8.7581 1.02355 -1.1922
5859 1 1.00629 -12.2611 -17.3323 -15.1306 -5.80963 -3.97988
3953 1 7.03458 -14.5915 -7.3037 0.531768 6.75217 -0.990236
5404 1 -12.8128 8.76784 5.67715 6.76615 3.91793 -1.51382
3425 1 -4.20847 -5.03888 -16.3457 4.57258 16.8725 -4.03491
4042 1 -14.8919 -8.92628 -6.55819 5.10645 1.54272 5.9425
4602 1 -12.7581 -8.99227 -8.74601 -3.27306 -0.134671 5.69859
7334 1 -10.6607 -7.25909 -9.33739 12.369 -0.948979 3.52115
6939 1 -12.5803 -6.40705 -4.55359 -0.832403 1.36977 3.52951
4637 1 -12.0376 -8.23656 -6.38099 -5.79435 -3.4533 7.54568
3618 1 -8.18893 -8.62548 -6.07668 4.85754 0.0233672 8.62513
3360 1 -8.31534 -5.97452 -5.12917 -4.88975 -4.76068 0.0965549
7689 1 -8.67641 -9.32312 -9.21616 -4.59426 3.69569 0.0295136
4816 1 -11.4799 -4.92713 -8.81676 3.88556 -4.6147 12.2897
2577 1 -10.8402 -5.88113 -6.44923 -5.78771 -2.30485 5.41298
7783 1 -3.76041 -9.09591 -9.65434 -2.97432 -2.15856 2.58761
5105 1 -6.04014 -8.3109 -7.69269 -10.6969 7.60694 -8.54173
7272 1 -1.16524 -9.57769 -6.5204 1.09678 -1.3273 -0.751165
82 1 -2.90549 -7.2886 -7.62504 -4.22002 -1.91927 5.46935
7345 1 1.62053 -10.2074 -7.60029 1.46397 -5.18033 4.78083
3686 1 -0.351064 -5.95842 -7.81955 -2.16664 -3.73795 -4.91566
3374 1 2.02071 -8.13598 -9.58027 -6.36281 -4.60706 -1.86716
3642 1 3.93143 -8.87246 -5.57365 4.84402 1.62818 -2.56395
5945 1 5.94222 -10.5042 -6.19181 -10.398 1.35493 3.80726
5907 1 2.56488 -6.07174 -8.25845 2.85567 -2.83915 -4.55991
3185 1 4.27211 -6.1063 -6.27974 -9.80471 -7.73667 -2.20776
6846 1 6.92307 -7.78911 -7.42975 -1.99872 -0.526196 -6.51045
6941 1 -14.6642 -3.98034 -6.15709 3.61325 1.99284 -5.67338
348 1 -13.6569 -6.35955 -7.527 3.04639 4.24449 -1.89094
5927 1 8.82838 -11.4944 -12.7971 -11.8139 -3.13877 6.45494
4573 1 -12.2443 -3.55517 -4.5927 -0.631758 -8.07018 -1.32187
5977 1 -11.5026 -1.03919 -3.23996 -2.65965 10.5846 0.678608
3840 1 -14.2945 -3.7279 -9.16548 -0.887766 -5.36054 -0.757901
4951 1 -4.83698 -0.839382 -9.40441 2.30041 -0.295324 -3.18624
1015 1 -13.0605 -2.18958 -6.92457 -9.41437 1.70714 -1.19294
7389 1 -8.63568 -3.82021 -7.72358 14.2571 -5.60706 -0.977518
5548 1 -8.37855 -3.2996 -3.93286 2.7449 -4.81434 3.44578
2773 1 -6.08258 -2.84883 -7.88056 6.38976 1.81142 5.39206
3901 1 -6.7587 -8.18575 -10.556 -1.20985 2.37234 -0.236715
4014 1 -8.19106 -6.42958 -8.67924 3.65979 6.6321 -6.70025
5492 1 -4.63992 -4.03873 -10.5821 3.09183 3.15581 -0.119086
7204 1 -0.812675 -3.18468 -7.42496 -2.34825 8.8742 4.39251
1171 1 -2.38692 -3.7395 -5.384 -3.40027 -4.41032 -4.68486
4352 1 1.27335 -7.68888 -6.64616 1.07533 3.09271 -4.43313
5491 1 1.90945 -3.78634 -7.07822 -3.1295 -2.83149 -6.92472
5379 1 4.72248 -2.86607 -8.75443 1.45309 3.28463 -3.98683
3192 1 6.80288 -4.84665 -6.84303 -1.67977 2.71863 -1.66779
5777 1 7.13969 -2.24083 -7.65178 -2.35624 -9.87653 -1.94491
6786 1 6.82566 -6.58766 -4.95179 2.37384 -3.78232 5.34667
1505 1 -16.3777 -1.46402 -9.99566 -0.702456 -0.302672 1.66443
2392 2 -14.6651 0.335022 -9.38395 3.97843 -10.4658 0.267464
6132 1 -15.587 -1.07173 -7.3407 0.796429 -9.32212 0.928111
143 1 -16.7984 1.23969 -9.08975 -10.5743 4.89458 -4.49126
3045 1 -12.7375 -1.28085 -9.26736 2.50166 -8.09649 -4.66756
7303 1 -10.5125 0.17943 -8.29227 15.0433 -1.90433 5.20736
4870 1 -13.7095 1.04666 -7.24405 -5.39003 -2.29004 1.66698
477 1 -7.05468 0.297536 -8.015 2.42051 -8.06568 0.486774
7397 1 -10.8442 -1.00782 -11.6018 -5.18548 -8.47922 -8.77205
6142 1 -10.1052 -1.99359 -6.26783 -1.30914 1.81711 -1.04172
1103 1 -5.27599 0.249827 -5.72256 -1.92154 -0.0646607 -2.29549
5685 1 -5.05664 2.32548 -7.44594 -11.3108 9.77229 -2.46969
3560 1 -0.628275 -0.619816 -8.05533 1.71435 -17.9135 -3.39424
5727 1 -3.52643 -1.68723 -6.94449 0.467032 -1.79675 2.74725
221 1 1.87675 0.790185 -9.40164 1.04106 1.63616 3.55476
1834 1 1.00612 0.531296 -6.07139 10.1746 10.9724 -14.0568
2384 1 4.75626 -0.20615 -9.3517 0.527782 2.15521 7.60528
4792 2 4.86806 -1.01904 -7.2542 -7.12259 0.670958 5.80644
2070 1 2.44931 -1.27965 -7.44806 3.16392 -0.668568 2.54557
800 1 7.60844 -0.512401 -5.02013 -8.68783 4.28689 -8.09238
4598 1 7.80043 -1.30431 -9.9486 3.19759 1.39926 0.306008
3728 1 -2.2585 -4.77976 7.98818 6.96155 -3.37319 -3.98008
925 1 -14.7085 2.71653 -8.83521 0.107115 4.01449 -0.490143
6768 1 -12.3924 1.45483 -9.8761 -3.34983 4.29344 -2.16428
1882 1 -15.0948 3.54409 -6.64302 -6.80515 8.01046 -7.37184
7466 1 -12.6506 3.8268 -7.57565 4.54363 1.75431 1.15452
1966 1 -9.70722 3.62352 -7.65378 4.40359 -2.65217 3.78128
7834 1 -6.9061 2.60917 -9.68855 -7.44352 -4.67937 1.54113
2005 1 -7.15323 3.51275 -6.39184 11.2618 -0.6104 -0.280776
7332 1 -2.71677 1.07923 -8.45643 -2.54723 4.84232 -5.13109
4874 1 -4.1671 3.08941 -9.90778 0.830099 -0.574707 -1.73564
5270 1 -2.71448 3.80442 -7.82891 -2.80074 8.76579 0.794015
7306 1 -6.00254 6.49381 -4.90856 5.84017 -5.02772 -10.4021
49 1 1.37541 4.34948 -8.73775 -11.6813 -7.98887 -7.57353
6410 1 -0.263081 1.89283 -8.22168 -5.2562 0.258805 4.40005
2750 1 3.83635 2.67244 -9.32399 0.491712 6.86078 -0.735393
1192 2 1.96059 2.80469 -7.02171 -3.79702 5.76472 -0.163708
7899 1 1.4654 5.25427 -6.21546 1.33655 1.23721 0.103994
605 1 -5.69706 -14.8489 8.41324 -3.33141 -3.56606 8.73475
813 1 6.75733 3.12703 -7.86054 2.29023 0.171165 1.48292
7346 1 -1.90766 8.45534 -10.1082 -4.68381 -0.970915 6.58212
5572 1 7.17303 0.272539 -7.6089 -4.551 -0.69106 5.35802
1449 1 8.44377 6.05168 -10.0842 0.696511 0.642198 -9.40895
7961 1 -16.3705 -15.7451 3.47303 0.635734 3.2129 11.0409
7535 1 -11.503 -16.78 6.91771 9.6748 1.86725 3.18625
5531 1 7.15211 -12.1513 8.74879 -3.7205 -0.0549479 -2.44889
384 1 -15.4505 5.31829 -8.82777 -11.6174 -8.4145 4.81424
7200 2 -10.5062 8.83539 -12.9955 0.94453 4.5948 5.1757
1885 1 3.90505 -1.75248 -16.0736 -6.97415 2.60013 0.257537
2504 1 -8.2689 7.74774 -7.71906 2.52174 -0.156984 7.09694
8070 1 -4.40931 5.10776 -6.14455 -1.02107 -7.49714 -7.64817
4831 1 -17.0952 -4.74242 0.298956 -3.10647 3.55376 11.7265
2598 1 -1.56983 -16.9779 -14.9045 -3.09387 8.03473 -6.44698
4132 1 -3.09224 6.92173 -7.75786 10.453 9.21694 7.07139
4862 1 -0.531636 6.1017 -7.77091 -4.3838 -3.36705 2.4483
8034 1 -0.537345 7.81334 -5.90394 0.556315 3.4046 -9.72739
35 1 5.91734 8.12952 -5.68991 4.75204 6.99864 -1.67405
392 1 4.03453 4.30267 -6.83027 -4.34855 3.66435 -2.18221
2723 1 5.3843 4.80341 -10.0949 3.2383 -3.11214 4.33053
135 1 -8.99738 -0.649317 7.40804 -2.5814 3.33953 -3.93501
6700 1 8.53392 -5.22349 1.08358 7.6947 -4.28989 -4.24506
6007 1 -6.66798 -17.0409 1.81708 0.00856397 0.36766 -9.29807
2936 1 -14.3983 -14.1148 -4.33479 9.09774 -8.69563 12.6869
5186 1 -9.56406 3.53703 -17.4757 -0.771998 3.90476 5.72612
3566 1 -9.10655 -15.4569 -3.95883 3.26323 -4.28698 -0.110599
2998 2 -9.33401 -14.7081 -1.5993 -1.73078 8.08242 -5.65949
4840 1 -6.82411 -12.8368 -5.4296 5.07042 2.07538 -4.37227
7658 1 -6.05916 -15.7179 -4.42772 0.302818 5.04492 -8.48354
4619 1 -2.86933 -11.9173 -5.21541 -9.58909 -1.55852 -10.6971
4842 1 2.47452 -16.3071 -3.54688 4.28546 -3.65222 0.978161
7136 1 0.116393 -16.614 -4.92804 -2.05078 -1.79104 8.22807
189 1 4.67835 -16.1305 -5.20721 6.04547 -3.41199 -5.16668
6298 2 3.22381 -14.1583 -4.86374 0.992247 3.78835 2.58155
2556 1 4.77433 -14.7242 -2.82992 7.64749 -2.32331 -12.1868
1601 1 4.61728 7.49465 -10.7008 -4.01619 6.53906 1.54978
2685 1 7.92663 -13.727 -4.86094 -8.75012 1.45316 -1.07477
5040 1 -17.3521 -8.855 -5.45047 6.83748 3.41747 0.926881
4001 1 -11.5987 -14.8809 -2.78375 -11.879 0.188272 -0.985336
4532 1 -15.5244 -11.2165 -3.93973 1.8625 -1.74974 0.0669382
7396 1 -12.6911 -11.8111 -5.22204 -1.50116 4.9866 -6.98998
6257 1 -6.27615 -10.3767 -6.34588 0.384708 -5.16914 -4.78764
2407 1 -10.1198 -12.3979 -2.07151 -2.56281 4.41286 2.64798
5846 1 -3.61426 -11.3248 -7.54547 -3.67254 -4.72124 -13.7014
1765 1 -7.40323 -11.237 -3.45341 -6.00326 -6.22619 0.725597
3104 1 -3.0591 -7.79411 -3.1777 10.966 -0.163249 -5.72293
555 1 -0.047309 -11.9271 -3.05639 2.98944 -0.022728 11.7457
7780 1 1.16951 -9.49596 -4.54415 -10.028 9.38326 -7.6201
1932 1 3.06227 -11.8061 -4.97488 -5.91108 -0.480873 7.56872
2943 1 0.721568 -13.7975 -5.08337 -0.0904478 -4.12452 -3.91307
1499 2 4.16732 -12.3173 -2.83017 0.207697 0.505168 4.98421
7450 1 5.5464 -13.1216 -5.61429 11.4163 -9.57493 12.7317
156 1 8.86149 -11.9531 -7.44653 4.61726 5.60134 -5.78192
1332 1 6.71402 -11.9988 -3.51926 7.1251 3.0532 5.97421
6133 1 0.0857856 -16.3997 2.0038 9.47788 8.12571 -6.67124
6732 1 -10.4731 -17.0814 3.9153 -6.98712 -1.79504 2.3536
2983 1 -13.9447 -11.6575 -7.67549 -0.0190551 0.734697 7.65096
1935 1 7.88412 -6.57041 3.26123 5.13798 1.00838 -1.06888
4934 1 -15.3852 -7.17196 -4.41692 -0.22532 5.14022 -7.58702
7694 1 -13.5057 -9.20564 -4.44289 8.75758 0.432567 -1.45683
5728 1 -10.773 -7.64207 -2.37432 14.0197 9.37236 6.56111
900 2 -10.324 -7.47146 -4.8355 0.0131462 4.85981 -4.73055
2956 1 -11.0565 -9.92822 -3.90138 -2.8778 -6.41429 -0.507731
1364 1 -8.5538 -8.56097 -3.53251 -3.06275 -3.0281 1.66778
5227 1 -11.564 -10.1171 -1.33463 4.63237 7.85831 8.17127
1133 1 -6.19 -7.37427 -4.35361 -2.59871 -5.48091 -1.9754
7163 1 -3.42313 -4.43518 -7.7448 1.19664 -6.82366 -2.72796
3196 1 -6.30632 -4.8576 -3.96498 -3.54554 2.20948 -0.777141
1682 1 -5.59436 -11.2365 -1.19104 -8.08739 0.476572 -0.483152
145 1 -3.7803 -5.84712 -4.92662 6.12941 2.89586 -0.452566
7960 1 -1.29223 -6.99517 -5.23224 -6.5039 5.06926 2.02977
2417 1 -1.39026 -9.65771 -3.73287 1.05945 0.252514 0.116195
2831 1 1.55018 -8.88176 -0.837493 0.311598 1.78882 -6.16436
1024 1 3.31184 -10.0226 -2.73439 5.53437 6.54548 1.56853
6934 1 2.06754 -7.34105 -3.73106 -0.255699 -4.46679 3.7645
438 1 -0.287655 -5.30059 -0.881823 -1.00825 -2.35726 0.340238
3441 1 6.30013 -9.09168 -3.66088 -6.39 6.1766 -4.643
6772 1 -16.514 -1.75113 -2.26682 -0.436229 2.48009 4.23642
2515 1 -14.6229 -4.95746 -3.37472 4.44776 -6.06744 3.23137
5245 1 -17.1728 -1.1319 -4.72878 3.43624 4.57777 -6.37435
1274 1 -11.4531 -5.99722 -0.292274 0.389231 -1.17246 5.32554
6050 1 -12.4648 -4.21877 -1.54787 -6.29931 -3.78762 -1.0281
2972 1 -10.2503 -5.13081 -3.55603 5.45823 -5.84268 4.8479
3128 1 -6.09187 -1.89436 -3.11003 -4.56437 5.77035 2.18392
1019 1 -5.87011 -5.65047 -6.5207 7.30296 1.27879 0.893
4986 1 -5.26209 -3.06195 -5.47878 -8.23264 -6.67137 -4.17784
5374 1 -4.39328 -3.6957 -1.59725 4.47448 6.85061 -4.60522
130 1 -0.269455 -7.39227 -2.53512 3.34463 -6.02672 3.1711
7016 1 0.300894 -4.65095 -5.19034 14.0389 10.1701 -5.31271
7133 1 2.8325 -4.83291 -4.31572 -2.48746 -0.173701 -2.96173
554 1 4.49714 -6.41241 -3.14974 7.79738 3.947 3.60721
3746 1 7.01169 -5.27713 -2.61788 -2.02788 -2.4474 -1.67926
4198 2 5.47932 -4.63635 -4.74601 4.28837 3.11449 0.414362
1845 1 4.81878 -2.62254 -3.43952 8.67621 -5.1729 -11.3386