ITEM: TIMESTEP
5451182
ITEM: NUMBER OF ATOMS
6400
ITEM: BOX BOUNDS pp pp pp
0.0 67.304182
0.0 10.768669
0.0 10.768669
ITEM: ATOMS id type x y z
1348 1 0.286978 0.316951 0.551625
766 2 1.21622 0.947291 1.03088
3421 1 2.084 0.243563 0.621644
950 1 3.04192 0.488063 0.727866
3272 1 4.01092 0.31817 0.481113
3772 1 4.73819 0.999098 0.349974
5701 1 5.24236 0.0895491 0.584604
3856 2 6.41435 0.230753 0.692642
969 2 7.37798 1.09616 0.687768
3420 2 0.133678 1.4419 0.409841
6125 1 0.775538 2.09217 1.08218
3510 1 1.16489 1.87508 0.146533
5258 2 2.3172 1.32718 0.528627
679 1 1.94596 2.41683 0.315636
6357 1 2.89966 2.17265 1.16298
6066 2 3.69787 1.42071 0.723707
2495 1 4.68285 1.98215 0.510257
2702 2 5.62882 1.36086 0.979671
287 1 6.44215 1.5524 0.286581
1310 1 8.27084 1.80567 0.438031
4272 1 0.388144 2.61556 0.37902
4908 2 1.26261 3.11963 0.959613
1395 2 2.55736 3.18319 0.952133
6256 2 3.81573 2.73907 0.851284
4248 1 4.62473 2.84124 0.041539
2735 1 4.5704 3.53429 0.756348
500 2 5.68641 2.5326 0.381614
5971 1 4.9088 2.64363 1.1697
4450 1 6.75359 2.50029 0.113097
3297 2 6.49794 3.44721 0.82604
6064 2 7.72326 2.75586 0.52999
267 1 8.31545 3.61956 0.226342
209 1 0.578295 3.95532 0.719627
3982 2 1.52394 4.36038 0.276032
5730 2 2.8587 4.29291 0.464669
515 2 4.12278 4.54168 0.354227
900 1 3.64861 3.81416 1.16733
1712 1 5.7405 4.41854 0.865563
6208 2 5.36348 3.78228 0.0385244
2791 1 6.63882 4.74043 1.08769
3932 2 7.56964 4.15858 0.852168
2533 1 0.380034 4.88957 0.49054
442 1 0.174002 5.77697 0.112276
188 2 1.247 5.72332 0.515488
3386 2 2.32086 5.18251 1.19771
1056 1 3.2209 5.36067 0.415758
5201 1 4.57244 5.3499 1.01341
935 2 5.65458 5.53283 1.17808
2402 2 6.68974 5.74766 0.522505
4824 1 7.61965 5.17485 0.385923
5562 2 0.12441 6.87638 0.0946986
5160 2 0.806775 6.85084 1.18014
228 1 1.55417 6.7925 0.352122
3126 2 2.54703 6.27766 0.503059
1527 2 3.80554 6.13941 1.01289
364 1 4.21508 6.91533 0.0918267
5865 1 4.50777 7.07415 1.06325
4953 1 4.86232 6.19626 0.545848
5259 1 5.77785 6.31687 0.197013
3207 1 5.17559 7.13206 0.319884
3691 2 6.65042 7.05895 0.300344
3462 2 7.80679 6.39545 0.351597
1592 1 0.275809 7.78945 0.75969
3827 1 1.27233 7.79773 0.690108
467 2 2.32936 7.63536 0.0658995
4098 2 3.33435 7.27648 0.828132
5729 1 4.25265 7.93829 0.588614
815 1 5.86008 7.85986 0.340116
3088 2 5.15527 7.99168 1.22347
4785 1 6.88399 8.19193 0.170934
2331 2 7.69264 7.70598 0.91675
2974 2 0.921187 8.68862 0.00544504
3134 2 2.06245 8.55516 1.00225
1432 1 1.40832 9.40734 0.787377
2437 1 2.00483 8.99075 10.7593
6124 2 3.28726 8.50995 0.631281
5647 1 2.76518 9.43093 0.412704
512 1 3.752 9.52082 0.319726
2258 1 3.95963 9.25765 1.23325
2946 2 4.84145 9.06938 0.48832
3042 2 6.10643 8.89167 0.678084
1780 2 7.41949 9.03771 0.91955
5951 1 7.81611 8.47715 0.0339441
1260 1 0.452289 9.64009 0.523348
5442 2 1.14597 10.4629 0.802868
1470 1 2.11647 10.1092 0.3063
3784 2 3.14208 10.2175 1.18083
3485 2 4.43322 10.2609 1.16417
3508 1 6.64087 9.88156 0.819181
2021 2 7.5862 10.4182 0.600402
5169 1 0.601335 0.134689 1.72448
4257 1 1.34894 0.557882 2.14108
1381 2 2.32984 0.342734 1.6776
546 1 4.70088 0.612584 1.25085
4332 2 3.6847 0.564236 1.70247
3864 1 4.6019 1.10057 2.21561
5207 1 4.66498 0.0634689 2.1429
3589 2 5.65766 0.296331 1.73864
3135 1 6.67618 0.932556 1.55772
2352 2 7.72835 0.436971 1.73647
2718 2 0.720153 1.52266 2.04176
359 2 1.81446 2.06523 1.46464
5145 1 1.99055 1.29172 2.28025
4092 1 2.80373 1.32402 1.5739
6179 1 2.60271 2.17947 2.25034
4432 1 4.61431 1.57316 1.3629
911 2 3.75561 1.98036 1.94022
3507 2 4.95063 2.21722 2.19334
3561 2 5.93247 1.45825 2.22181
6022 2 6.78132 2.10874 1.23762
2464 2 8.01181 1.81979 1.57898
5184 2 0.661762 2.78867 2.1468
4344 2 1.92272 3.2064 2.15072
69 2 3.21366 3.11243 2.0725
1252 1 4.43916 3.23854 1.77196
1482 1 5.83526 2.56992 1.55283
6223 1 5.47801 3.48084 1.28234
1286 1 6.48797 3.56735 1.92689
5106 2 7.55684 3.13123 1.72479
2284 1 0.890107 3.84719 1.80636
2969 1 1.86959 4.04675 1.29272
2844 2 1.90228 4.48905 2.34104
6115 1 2.8022 4.14143 1.68886
3103 1 3.93653 4.00884 2.12436
6090 2 4.78065 4.33759 1.46815
673 2 5.93192 4.56265 2.02507
1231 2 7.21283 4.42431 2.02325
313 1 7.90838 10.3194 9.96873
4966 2 1.06599 4.8928 1.45769
3151 1 0.875799 5.91369 1.93588
3545 1 1.8176 5.64661 2.10513
1796 2 3.58987 4.96369 1.51617
1640 2 4.91871 5.38121 2.20687
1588 1 6.66525 5.50009 1.73313
509 2 7.74103 5.4876 1.40258
5639 1 0.243015 6.67399 2.10493
5761 1 1.72827 6.22366 1.35923
2136 2 1.41863 6.78271 2.38457
2285 2 2.78848 6.35306 1.78498
5513 1 4.776 6.30646 1.62953
719 2 3.87515 6.04023 2.37267
5166 2 5.7311 6.82424 1.23049
6194 2 5.9678 6.18982 2.29637
2031 1 5.05173 7.14825 2.09585
5316 2 7.02617 6.61443 1.46355
2463 1 7.40671 6.01079 2.3093
4641 2 8.40228 2.43316 10.1237
4300 1 1.13448 7.77014 1.84923
2850 2 2.08796 7.28168 1.29703
2893 1 2.04994 8.09342 2.00871
2206 1 3.01363 7.9426 1.71769
5112 2 3.90418 7.23742 2.00237
135 1 4.64733 8.09529 2.2179
3677 1 3.98716 8.28428 1.50786
3703 1 5.6557 7.86271 2.3353
3250 1 6.46098 7.24243 2.23275
5980 2 6.46591 7.87349 1.33475
3526 1 6.47245 8.37276 2.42329
82 2 7.65645 7.47165 2.21113
1519 2 0.72744 8.66958 1.26528
2879 1 0.702777 8.60001 2.39869
2149 2 1.63715 9.1407 2.14443
5466 2 2.98439 9.07526 1.76048
256 1 4.12242 9.07142 2.18667
594 1 4.87855 9.01195 1.60015
683 1 5.81001 8.75617 1.78172
3971 2 6.69121 9.41463 1.95536
2957 1 7.24941 8.42609 1.81447
4200 1 8.18184 8.57905 1.64609
4351 2 0.540696 9.76362 1.87337
429 1 2.13817 9.78162 1.28918
6005 1 1.51341 10.3383 1.82652
4113 2 3.75369 10.1309 2.31064
2837 1 4.83216 9.81854 2.17282
4509 2 5.63067 9.87424 1.34417
321 1 6.80092 10.4934 1.62776
391 1 7.70049 9.93268 1.60454
4367 1 0.47926 0.694692 2.65271
1226 1 1.28813 1.01832 3.04248
2677 1 2.09392 0.429656 2.85074
3389 1 3.02444 0.160627 2.58546
4982 2 4.02079 0.427918 3.01725
1947 2 5.28499 0.667868 2.99704
4975 1 6.02573 0.0620304 3.57301
3453 2 6.62675 0.292828 2.57655
3045 1 7.72567 0.434193 2.86095
3560 1 8.24176 1.25287 2.57881
4774 2 0.681739 1.96082 3.24616
182 1 1.61342 2.14272 2.62054
4175 2 2.16456 1.5321 3.4785
5700 2 3.07847 1.24377 2.66977
2345 1 3.33045 2.3161 3.03503
4479 2 4.33795 1.68466 3.2309
4221 2 5.62526 2.15787 3.27179
2127 2 7.17421 1.43986 2.50546
3605 2 0.0798828 3.10787 3.30229
5625 1 1.25176 2.96218 3.08007
4612 1 2.38266 2.60122 3.13159
5483 1 3.15837 3.21731 3.4958
548 2 4.23164 3.03576 2.87212
5928 2 5.53324 3.30126 2.42793
3221 2 6.59126 2.56003 2.44372
1918 1 6.25281 3.10057 3.4234
647 2 7.2252 3.55707 2.93223
1921 2 7.94823 2.44822 2.7893
2102 1 8.17654 3.55022 3.53163
5542 2 0.902393 4.08941 2.95986
899 2 2.10806 3.64282 3.38034
3447 1 2.32637 4.82986 3.39527
3150 2 3.11276 4.13044 2.83004
658 2 4.83675 4.25328 2.78807
1287 2 6.12071 4.20024 3.24987
2038 2 0.246273 5.14138 2.46239
1369 2 1.37865 5.49783 3.0877
2426 2 2.8132 5.3354 2.50762
5551 1 3.90524 4.90845 2.62099
3942 1 4.54376 5.23876 3.28253
6067 1 5.56926 5.30893 3.12957
3845 2 6.68793 5.30682 2.86913
3550 2 8.00281 5.11714 2.66878
5063 1 7.7789 5.89888 3.43503
2374 2 0.280304 6.27599 3.12244
98 1 2.2144 6.23707 2.94315
5967 1 1.80704 7.03693 3.42395
6077 1 3.11627 6.18408 3.2373
562 1 4.09834 6.02911 3.47556
1841 2 3.73697 7.10999 3.30179
3618 2 4.95421 6.48916 2.98746
2471 1 5.89418 7.12366 3.01677
2353 1 6.01706 6.14851 3.51507
747 2 6.94311 6.60818 3.08782
3358 2 8.33106 6.50504 2.70569
3216 1 0.639966 7.372 2.92654
3329 2 1.51856 8.06968 2.97589
686 2 2.64284 7.29161 2.61248
1991 2 3.66558 8.28368 2.76304
3637 2 4.87801 7.75714 3.28262
728 1 6.03297 8.04232 3.36757
5687 1 6.90701 7.74169 2.99313
1293 2 7.87868 7.38886 3.55483
3563 2 0.953865 9.22417 3.35302
5880 2 2.21304 9.25853 3.45718
6015 1 2.56328 8.55636 2.65319
896 1 3.2118 9.30989 2.83627
1202 1 4.25832 9.48056 3.07677
2428 2 5.22815 8.89087 2.73953
983 2 6.38032 9.11421 3.26206
5540 2 7.58808 8.79666 2.77954
5499 1 0.295116 10.1252 3.49969
1722 2 1.18708 10.4606 2.88515
3071 1 2.13874 10.3925 3.54647
6262 2 2.41201 10.06 2.45279
2418 1 3.13684 10.1807 3.36445
6295 1 4.78591 10.3646 3.02174
4826 2 5.80669 10.1028 2.66491
239 1 5.16868 9.63733 3.57994
1957 1 6.71912 10.1699 3.41286
1325 2 7.50342 10.0876 2.68295
2488 2 6.75221 10.6137 10.2468
283 2 0.445143 0.464994 3.73744
5359 1 1.09974 0.529838 4.66921
2531 1 1.6796 0.512067 3.82477
3410 2 2.26337 0.183825 4.802
1513 2 2.87165 0.45269 3.70549
642 1 2.96688 1.15819 4.58652
2540 2 4.0337 0.657554 4.23737
626 2 6.38846 1.13626 3.54708
644 1 7.07356 0.26837 3.64102
4366 2 6.13433 0.438496 4.67321
3500 1 7.20306 0.707417 4.56029
2420 2 7.7671 1.16301 3.70239
922 1 1.07749 1.35508 4.04552
3711 2 1.59925 2.49261 4.06744
5486 2 1.90745 1.43572 4.76468
1312 1 3.32972 1.5363 3.72349
2196 2 3.93295 1.81235 4.64417
1888 1 4.82684 2.31136 4.0591
38 2 5.25651 1.27707 4.16993
4349 2 6.9859 2.2211 3.6641
3237 1 6.53309 1.58375 4.58745
842 1 7.5807 1.64214 4.67076
6202 2 0.384936 2.66312 4.4401
1686 1 1.14176 3.47389 3.92702
2778 2 2.25842 3.55746 4.64798
392 2 2.84409 2.41599 4.27735
596 1 3.47101 3.40956 4.49575
4374 1 3.8956 2.64717 3.8623
5441 1 4.42159 2.99962 4.62377
1455 2 5.17551 3.3261 3.74312
3975 2 5.99311 2.56738 4.47493
1860 2 7.0726 3.38244 4.17625
2225 2 8.11652 2.5746 4.13841
3334 2 0.296942 3.9845 4.33621
1481 2 1.48571 4.56686 4.03647
317 1 2.90552 4.23363 4.0631
3029 1 3.72522 4.4269 4.68103
3548 2 4.03138 3.98634 3.73464
2473 1 4.80842 3.86596 4.6834
2570 2 5.12264 4.6543 4.00194
4381 2 6.02259 3.9821 4.55505
6134 2 7.29177 4.59302 3.73418
1516 1 7.97163 3.98449 4.41329
4631 2 0.38944 5.17323 3.81622
2195 1 1.14938 5.42364 4.6703
1555 2 2.26249 5.80604 4.05859
701 2 3.37532 5.15991 3.65716
3512 1 4.21761 5.22212 4.32045
2744 2 5.09846 5.91745 4.14854
5281 1 6.14266 5.12858 3.99748
2243 1 6.95776 5.67399 3.90428
1986 2 8.01713 5.60247 4.46072
1951 2 1.10509 6.41221 4.06933
2811 1 2.70168 6.86285 3.83852
909 2 3.61811 6.32506 4.37095
1212 1 4.55375 6.87632 4.05936
949 2 5.70142 7.18091 4.12596
2406 2 6.27992 6.12785 4.65507
4391 1 7.30832 6.54193 4.18496
4254 2 8.14736 6.9097 4.81147
1955 1 1.03426 7.57354 3.85832
2333 2 5.76036 9.97347 0.0219808
1678 2 1.93193 7.37755 4.52227
4409 2 2.68989 8.04612 3.63609
2307 2 3.30894 7.5498 4.5997
6191 1 3.88041 8.09847 3.84826
1505 2 4.62807 7.76741 4.68055
3673 1 6.79095 7.34415 3.91715
6285 1 6.40995 8.05643 4.42781
3467 1 7.0854 8.37069 3.70165
1171 2 7.56695 8.08164 4.62664
5548 2 0.562148 8.48869 4.36225
2633 1 1.66851 8.38217 4.04777
152 1 1.6155 9.2603 4.45322
2142 2 3.46986 9.21527 3.89619
5014 2 2.67536 8.71868 4.75349
6275 1 4.5196 8.78479 3.68576
6375 1 3.88747 8.6109 4.73052
5450 2 4.57898 9.55879 4.56781
2904 2 5.48909 8.64207 4.18553
4099 1 6.62178 8.98159 4.42649
4370 2 7.49022 9.49614 3.92309
1161 2 8.39367 8.54619 3.7872
5384 2 1.2198 10.2618 4.20078
2609 1 2.41659 9.86633 4.37294
2157 2 3.38676 10.3464 4.56386
1062 1 4.07812 10.2393 3.69826
3527 2 5.03481 10.708 4.10654
5740 2 6.03434 9.91483 4.24038
393 1 7.06288 10.4667 4.4225
5936 2 8.128 10.6295 3.77702
1067 2 5.44351 10.636 9.65807
6084 2 1.28148 0.742678 5.74712
598 1 2.39962 0.878805 5.6919
5890 2 3.52645 0.644889 5.43204
4420 2 4.85636 0.766358 5.27546
1757 2 7.02575 1.2415 5.57039
243 1 8.13255 0.476412 4.77718
4075 1 8.12267 0.935889 5.70912
5310 2 0.508955 1.49628 5.01146
5787 1 1.22674 2.29108 5.15367
3775 1 1.72035 1.76435 5.82175
4572 2 2.89608 1.88237 5.51279
4161 1 5.88932 1.32018 5.33386
847 2 5.03252 2.081 5.17798
967 2 6.08684 2.30198 5.87532
1272 1 8.09264 1.96951 5.59978
3989 1 0.320486 2.45 5.59134
2653 1 0.37003 3.42122 5.31148
3920 1 1.24615 3.24351 4.911
1831 1 2.10543 2.64304 5.32066
2111 1 3.04468 3.03037 5.26193
898 1 3.94218 2.62554 5.36871
5955 1 5.32881 3.19374 5.17726
6399 1 6.31469 3.26479 5.36668
4308 2 7.16751 2.53681 5.13761
54 2 8.14506 3.36108 5.367
3693 2 1.25847 4.29597 5.26951
6355 1 2.27047 4.68039 4.7846
3567 1 3.01766 4.16929 5.30503
179 2 4.05588 3.72998 5.51656
2457 1 4.57724 4.68645 5.12438
1706 1 5.25659 4.09939 5.60395
1862 1 6.2893 4.23651 5.60666
4385 1 7.10321 3.85524 5.16131
5231 1 7.13893 4.5431 5.97365
5821 1 7.84002 4.48204 5.20243
472 2 0.104885 5.02598 5.09731
5036 2 1.04352 5.44604 5.85325
4363 1 1.98888 5.57904 5.14331
216 2 3.13068 5.31995 4.97403
2929 1 3.80462 4.85791 5.7554
1429 2 4.35805 5.77166 5.26427
4596 2 5.59784 5.15443 5.14273
5805 1 5.50036 5.9021 6.06138
1283 2 6.89577 4.9802 4.89255
1999 2 6.6055 5.74664 5.90181
5760 2 7.94417 5.41089 5.771
1002 1 0.589094 6.16582 5.06326
3363 1 1.53083 6.46879 5.16837
5674 2 2.66893 6.55794 5.15969
6174 2 3.95087 6.95792 5.51348
1271 2 5.22535 6.69538 5.22505
5172 2 6.7716 7.1821 5.08923
4020 1 7.33542 6.18494 5.17432
1254 1 8.11655 6.49536 5.83291
3758 2 0.726747 7.30285 5.05686
6098 2 0.431098 8.29907 5.83826
3901 2 1.63782 7.41348 5.99045
5367 1 2.52754 7.75613 5.41293
2832 2 3.53125 8.14994 5.73921
10 2 5.76243 7.95109 5.34057
2740 2 7.6806 7.6457 5.82833
3371 2 0.762204 9.53352 5.1549
6378 2 1.53295 8.42746 5.22465
1487 2 3.5259 9.43862 5.451
2864 2 4.676 8.65842 5.58712
2381 2 5.72341 9.30335 5.298
1285 2 6.84118 8.66533 5.49344
3081 1 7.95082 9.12582 4.87076
6127 1 7.95491 8.7321 5.75859
215 1 0.511166 10.7097 5.27484
4721 2 2.16098 9.68414 5.46545
5011 1 1.43909 10.472 5.32762
4287 1 2.92772 10.4889 5.62528
655 1 4.3153 10.561 5.13182
5719 1 4.68717 9.8107 5.67724
5807 1 5.33619 10.4301 5.1801
5421 1 7.05044 9.6662 5.01232
3073 1 6.3064 10.2683 5.26442
1692 2 7.27553 10.7603 5.52241
4755 1 7.99046 10.1426 4.82397
5745 1 7.73171 9.68061 5.73492
2289 2 0.749521 0.653447 6.89781
2884 2 2.13406 10.7456 6.37246
4802 2 3.04649 0.998444 6.59643
6231 1 4.30782 0.645674 6.37584
5482 2 5.38648 0.428611 7.14446
2385 2 6.06061 0.318458 6.00272
1775 1 7.44377 0.551644 6.50638
4683 2 0.748607 1.84923 6.41716
2885 1 1.8318 1.13862 6.70803
6080 2 2.27398 2.24074 6.61087
5208 2 4.04079 1.70225 6.00932
4947 1 4.13549 1.25789 7.08403
6299 1 4.51932 2.1634 6.90216
2618 2 5.24407 1.40354 6.33238
4611 2 6.48506 1.32293 6.72446
5795 1 7.18558 2.14597 6.20562
5246 2 7.92872 1.53167 6.75836
1278 1 0.190363 3.06204 6.41036
4893 1 0.789263 2.86048 7.10353
2814 2 1.23552 3.01113 6.04442
5638 2 3.37189 2.86553 6.30125
3039 1 4.12602 3.24743 6.97482
1239 2 4.8042 2.88156 6.13863
5712 2 5.86556 3.49998 6.42109
1144 1 6.62377 2.58384 6.83644
2874 2 7.13892 3.39016 6.20107
2323 1 7.99442 2.65646 6.31015
5162 2 0.105619 4.14375 6.08625
3130 2 2.34439 3.58565 5.99395
2474 2 1.30924 4.25595 6.53319
3829 1 2.3634 4.35159 7.07794
398 2 3.36268 4.20233 6.53664
3600 2 4.66134 4.18579 6.6047
4610 1 6.63092 4.22508 6.84811
1250 1 8.11617 4.25799 6.11996
947 2 7.69617 4.06311 7.15382
6348 2 0.358503 5.15613 6.8672
3706 2 2.3402 4.88003 5.96177
3132 2 1.6102 5.37614 7.10075
4185 1 2.83108 5.23365 6.90859
5484 2 3.33323 5.88896 6.14587
419 1 4.03704 5.17751 6.70437
4731 1 4.79897 5.12432 6.02814
5870 2 5.84239 4.83902 6.39086
2122 1 5.0759 5.39723 6.96338
5196 2 7.24724 5.22509 6.84321
1643 1 0.871847 6.57833 5.99925
1267 2 0.29522 6.46651 6.96124
387 2 2.04234 6.1417 6.1708
5682 2 1.49375 6.76335 7.12741
5532 2 2.86884 7.13316 6.33577
5228 2 4.53316 6.2861 6.44183
3131 1 3.70887 6.59279 7.10515
4297 2 6.09056 6.89554 6.13673
2344 2 6.78214 6.49881 7.1552
5449 1 7.22769 6.67793 6.15474
6143 1 7.93416 6.10221 6.76715
2377 1 8.21806 7.07903 6.63889
4809 1 0.700842 7.51509 6.61776
2279 2 2.1701 7.85108 7.14799
2475 1 3.22438 8.12066 6.84683
4820 1 3.90086 7.37768 6.58263
1436 1 4.23505 8.27903 6.65161
2466 2 4.95916 7.53825 6.24423
2073 2 5.8669 7.64977 7.16984
5869 1 6.59384 7.89636 6.26629
1265 2 7.33337 7.68262 7.08996
280 1 0.285277 9.34115 6.19479
3179 1 0.949095 9.45899 6.96414
2042 2 0.259471 8.59949 7.10351
5211 1 1.31617 8.39894 6.62278
2693 1 1.29986 9.18585 6.06189
1761 2 2.4126 8.65703 6.17514
1308 1 3.55274 9.03367 6.50796
4471 1 2.78749 9.01591 7.1849
3936 2 4.65727 9.29377 6.67714
2714 2 5.79656 8.73515 6.47202
2130 1 6.63187 8.59429 7.22179
3846 1 7.30299 8.80597 6.50598
1829 1 8.27619 9.28361 6.60379
2242 2 0.869346 10.3091 6.27999
325 1 1.93234 9.61664 6.66984
3333 1 3.1233 10.7122 6.99214
5849 1 2.88971 9.79815 6.42936
3895 2 3.87419 10.4039 6.22286
5323 1 4.7435 10.333 6.9381
4833 1 4.96705 0.001031 6.0756
6061 1 5.53688 10.0003 6.19689
3351 2 6.63423 9.76158 6.1984
5620 2 7.73169 10.2166 6.71705
338 1 0.209918 0.743471 7.87833
5768 2 1.47936 0.904201 7.8424
4772 1 1.94166 0.0925622 8.38889
4766 1 2.37847 0.402009 7.42626
3952 1 3.22768 0.916461 7.72153
119 2 4.1077 0.266437 7.53488
3226 1 5.11413 0.913031 8.24492
6096 2 7.08652 0.181947 8.36117
6192 2 6.13803 1.22531 7.96139
4595 1 7.24305 0.974385 7.5071
5404 2 8.09495 0.258289 7.57992
3113 1 0.393018 1.66807 7.44942
561 2 1.4319 2.15544 7.61874
6393 1 2.40712 1.46055 7.50105
2898 2 3.41451 2.05759 7.26653
4881 1 3.05489 1.7467 8.30665
4698 2 4.14238 1.43374 8.24774
5273 1 5.00789 1.46089 7.46505
6383 1 5.28505 1.94819 8.33109
4946 2 5.62811 2.32977 7.19869
1530 1 6.93819 1.93982 7.55517
5305 1 7.92532 1.74949 7.88278
73 2 0.22154 2.67372 8.07677
6237 1 1.14102 3.31191 8.01442
5628 2 1.88827 3.3108 7.19002
167 1 2.51498 2.41349 7.7768
1361 2 3.12012 3.35998 7.51433
541 2 4.38498 2.59951 7.88547
1128 1 5.09296 3.30357 7.23565
5312 2 5.40084 3.15882 8.33637
423 1 6.22452 2.38151 8.15233
5086 2 6.46396 3.36707 7.61372
3290 2 7.59951 2.81325 7.35656
1274 1 8.33549 2.69838 8.23208
3593 1 8.40326 3.58997 7.93527
4665 2 0.378243 3.89232 7.36289
4103 1 1.51377 4.27896 7.65781
5545 1 2.37223 4.18272 8.11842
4635 2 3.36347 4.65211 7.74796
5810 2 4.30216 3.85251 7.91284
4587 2 5.56624 4.30589 7.54117
5806 2 6.75034 4.69571 7.89766
823 2 8.23573 4.74161 8.0582
937 2 0.786099 4.92995 8.13489
5009 1 0.836707 5.95457 7.76707
6225 1 2.39163 5.12694 7.83058
6135 1 3.0299 5.76157 8.29703
6185 1 3.6095 5.67458 7.42534
4393 1 4.49478 4.89106 7.5498
4917 1 4.4947 6.04175 7.56244
4724 2 5.37811 5.44751 8.09178
1794 1 6.18127 5.4885 7.2193
1012 1 6.39441 5.85918 8.14257
3299 2 7.46916 5.77391 7.94529
883 2 0.893312 6.95665 8.23813
4874 2 1.86823 6.01804 8.23128
5635 1 2.11648 7.11738 8.07471
3546 2 2.6747 6.28929 7.32349
3996 1 3.74654 6.47343 8.15024
5070 2 5.50956 6.42624 7.23178
4542 2 6.05466 6.9127 8.31001
157 1 7.11984 6.91364 8.17189
1166 1 7.88491 6.75784 7.4976
3684 1 1.10156 7.84156 7.45859
1349 2 0.453451 8.16182 8.30278
2935 1 0.129335 7.47889 7.43383
235 1 1.73301 8.02256 8.21304
346 2 3.19949 7.3967 7.75604
141 1 2.68776 8.41191 7.99881
3908 2 4.52794 7.31223 7.50948
2180 1 5.28612 7.73973 8.20721
866 1 4.97264 8.37202 7.33192
4658 1 6.60647 7.83716 7.93192
790 2 0.520744 9.51379 8.00286
3384 2 1.70463 8.9779 7.62648
2499 1 2.84396 9.38159 8.13238
4223 2 3.84111 8.54811 7.67693
83 1 4.77505 9.29684 7.79294
5746 2 5.81562 8.71947 8.01088
2366 1 6.92127 8.76146 8.25045
5559 1 6.91876 9.54051 7.2285
3579 2 7.78035 8.85421 7.52201
3781 1 0.402121 10.4817 7.46151
2804 2 1.49199 10.3846 7.4542
2799 1 2.52057 9.98888 7.40497
1425 2 3.03714 10.6023 8.22991
2668 2 3.68251 9.79247 7.37037
3816 1 4.83036 10.2769 7.93361
5186 2 5.76786 0.039042 8.31823
2084 2 5.72646 9.82283 7.28902
4689 2 6.63613 0.002731 7.16176
4839 2 6.5798 9.78891 8.24007
1082 1 7.63973 9.96327 7.8532
2708 2 0.171476 1.06566 9.53373
6110 2 1.49547 0.755286 9.21706
16 1 2.47587 0.909321 8.40626
4330 1 2.6172 0.819448 9.39602
4482 1 3.39078 0.796013 8.75095
4085 2 4.47011 0.224609 8.78898
5991 1 4.08538 1.20649 9.34246
6042 2 6.38963 0.754234 9.30296
4426 1 8.03813 0.909806 8.4859
3279 1 7.45557 0.277323 9.40665
5236 2 0.727875 1.57338 8.54871
526 2 2.02459 1.88419 8.78296
5362 2 3.16947 1.80875 9.42774
4031 2 4.51792 2.35223 9.1608
3524 2 5.23405 1.28021 9.33067
2757 1 5.66519 2.40381 9.16014
4220 1 6.39827 1.80791 8.9339
3863 1 7.14388 1.29848 8.46041
2512 2 7.48129 1.44682 9.53746
4310 2 7.28684 2.39486 8.56143
2012 2 1.0743 2.74253 9.0789
1435 2 2.15809 3.14661 8.4835
4134 2 3.39072 2.80258 8.68697
6113 1 4.35637 3.46395 8.98489
5948 2 5.55957 3.48183 9.55827
5105 1 6.43922 3.02794 8.94217
3205 1 7.99105 3.01821 9.15493
1363 2 0.371838 3.82249 8.70764
3892 1 0.953523 4.62806 9.22646
5237 1 1.48344 4.01722 8.65497
4593 1 2.35157 3.98224 9.19423
5961 1 3.19841 3.87341 8.56143
3099 1 3.97238 4.39742 8.89261
3568 2 5.09902 4.37938 8.76083
4138 1 6.19509 3.94979 8.59569
1049 2 7.38725 3.69547 8.44516
4674 2 8.30762 4.13986 9.22818
5065 1 7.41011 4.86873 8.8568
1867 2 1.08005 5.77946 9.15982
61 1 1.82722 4.94046 8.61331
3801 1 2.22295 5.74384 9.28319
5263 1 1.86889 4.83359 9.58318
435 2 2.92722 4.92305 9.03496
1087 2 4.12087 5.41397 8.47378
1238 1 3.88704 5.15845 9.57972
3516 2 5.00617 5.43587 9.47537
1055 2 6.21676 5.00672 8.99736
1437 2 7.02024 6.04689 9.10423
5817 1 8.16063 5.68104 8.79849
4580 1 0.0410253 6.92159 8.91052
5653 1 0.13537 6.03184 8.57421
4213 1 0.878106 6.80592 9.47569
5529 1 1.76771 6.82349 9.00747
3327 2 2.86345 6.66834 8.94832
6238 2 3.97592 6.29419 9.38677
3503 2 4.8766 6.54426 8.53607
4933 1 5.80361 6.08914 9.03512
781 1 7.24937 7.15598 9.30355
3367 1 6.21557 6.8475 9.50197
2370 2 8.12173 6.77319 8.59368
493 2 1.29251 7.80145 9.18281
193 1 2.61041 7.73392 8.7379
696 1 3.27525 7.636 9.565
1923 2 4.00338 7.47347 8.73572
1624 2 5.21537 7.53353 9.31565
925 2 6.41153 7.90218 9.03141
5202 2 7.56105 7.92047 8.47401
6367 1 8.183 7.60627 9.38586
5113 1 1.12441 8.90401 8.75615
5452 2 2.17824 8.73284 9.06916
3176 2 3.39194 8.62823 8.89632
3821 2 4.6478 8.58177 8.66965
4348 1 5.58726 8.62752 9.18433
6109 1 6.47062 9.01748 9.10183
289 1 7.79975 9.21099 8.57321
780 1 8.34834 9.37465 9.48121
5554 2 0.701473 10.7463 8.52337
4993 1 0.517958 9.62224 9.14463
1571 2 1.77876 9.81853 8.59858
1669 1 2.34044 10.6151 9.23858
448 2 3.42997 10.7297 9.50035
2265 1 2.90736 9.74847 9.02825
5192 2 4.00412 9.74737 8.59556
2132 1 4.46953 10.1603 9.52544
1121 2 5.35757 9.68697 8.78024
5789 1 6.40026 10.4034 9.16453
4228 2 7.24751 9.75545 9.34614
1936 2 8.20411 10.3808 8.76603
660 2 1.03989 0.815317 10.486
1666 2 2.14724 0.249068 10.299
6230 2 3.23949 0.939638 10.3899
1021 2 4.45453 0.567554 10.1438
3542 2 5.73965 0.712484 10.5247
2563 1 6.85346 0.974909 10.3777
4394 2 7.86796 0.494273 10.4678
2919 1 1.08914 1.74883 9.63289
4924 2 0.236247 2.22294 10.1377
3670 2 2.05776 1.62711 10.1014
3188 2 3.01434 2.27232 10.7295
1847 2 4.17804 1.8778 10.3016
2343 1 5.22956 1.66059 10.5199
3728 2 6.20287 1.90035 10.0289
457 2 4.52245 10.2079 10.6551
2903 1 7.44793 1.83369 10.5943
2461 1 0.869209 3.32252 10.6983
1306 1 0.429616 3.3172 9.778
5053 1 1.93792 3.34498 10.7344
3814 1 1.36342 2.60177 10.2193
953 2 2.38316 2.88177 9.72013
1892 1 2.92921 3.36669 10.619
221 1 3.60569 2.7696 9.8916
5679 1 3.88358 3.51276 10.7192
3465 1 4.48533 3.21331 9.93392
2356 1 5.23472 2.53717 10.0741
2439 1 6.25743 3.21084 10.3766
6338 2 7.13247 2.69495 9.81765
1864 1 7.1594 3.54264 10.6745
3328 1 7.92898 3.42917 10.055
3596 2 3.21569 10.4309 10.7108
1320 1 0.411672 4.15035 10.4458
5346 2 1.41084 3.80384 9.81614
2388 1 2.41869 4.18054 10.1905
2658 2 3.39015 3.82648 9.68407
5135 1 3.30147 4.79963 10.2849
2411 2 4.54724 4.32551 9.95173
4454 1 5.7301 4.55417 9.9057
3819 2 6.51231 4.54576 10.7357
1949 2 6.83217 3.93883 9.58789
506 2 7.80751 4.46072 10.367
2183 2 0.888858 5.12377 10.2099
1973 2 2.25275 5.29431 10.504
456 1 3.06475 5.74584 9.85698
281 2 4.08024 5.73635 10.5586
5414 2 5.25861 5.15633 0.0215306
246 2 6.18013 5.75484 10.0851
6353 1 7.02451 5.0229 9.75938
2915 1 8.05329 5.22179 9.61884
3031 1 7.35204 5.68089 10.3433
976 1 8.36157 5.48035 10.5893
5123 1 0.936943 6.27166 10.3408
2350 2 1.97773 6.49509 10.0663
1535 2 3.21802 6.77328 10.3135
2768 2 5.06595 6.52044 10.1092
5125 1 6.9764 6.59101 10.1311
5830 2 8.07645 6.35752 9.79754
2591 1 0.0377717 7.9633 10.5415
3794 1 0.130872 7.37293 9.77954
2486 2 1.11343 7.47915 10.379
6377 1 2.29572 7.53103 9.67857
5489 1 1.76608 8.3496 10.0631
3452 1 3.66149 7.77653 10.5504
3049 1 4.216 7.28208 9.87779
4478 1 4.14122 8.28832 9.66899
3944 1 5.8445 7.30028 10.2891
6076 2 4.90798 7.99554 10.4688
187 1 6.73903 7.63155 10.063
2742 2 7.77144 7.45167 10.3943
2646 2 0.356251 8.54989 9.61204
5375 1 0.409552 9.58961 10.1971
4400 1 1.3183 9.19682 9.7336
2556 2 2.90196 8.53473 10.1498
639 2 3.6612 9.49254 9.87556
1118 1 4.02782 8.70689 10.5705
3112 2 4.94337 9.19145 9.92392
4963 1 6.06392 9.63263 9.74893
1123 2 6.06295 8.53034 10.1783
5128 2 6.94704 9.37839 10.5426
3438 2 8.21159 9.49374 10.6196
2436 2 7.44658 8.51829 9.65333
616 1 0.642459 10.5283 10.5629
6326 2 1.2436 10.3508 9.64921
921 2 2.34725 9.72309 9.99164
4216 1 1.3192 9.76933 10.615
2647 1 0.0465457 0.825879 1.35296
1205 2 0.00502573 7.7637 1.95674
1117 2 8.64693 0.794695 0.693608
5528 2 9.89659 1.07103 0.86318
3264 2 10.9453 0.385522 0.972638
66 1 11.6971 0.544432 0.049244
5656 2 12.0637 1.01148 1.09364
417 1 13.0772 0.948117 0.573568
2338 1 12.428 0.111468 0.620086
5126 2 14.1891 0.590236 0.687627
4214 2 15.5144 0.990885 0.698284
3736 1 15.285 0.101722 0.0602489
2948 2 16.643 0.0613496 0.852205
4831 1 9.23243 1.61474 0.13631
1170 1 10.1295 2.02836 0.214183
4387 1 9.91351 2.26838 1.17298
4475 2 11.1099 1.48418 0.285501
5396 2 11.9495 2.27492 1.07199
2140 2 13.2642 2.1211 0.785501
23 2 14.6083 1.85239 0.878187
1518 1 15.9334 2.2009 0.97189
513 2 16.6324 1.32946 1.14748
805 2 9.01925 2.66306 0.535456
4260 2 10.2512 3.16524 0.309951
3313 1 10.7088 3.62133 1.27607
1270 1 10.8687 2.47562 0.900279
4026 1 11.3858 3.28023 0.584329
388 1 12.347 2.96324 0.222605
5043 1 14.1045 2.61642 0.231393
2337 2 13.4481 3.55412 0.357802
5912 2 15.2178 2.96792 0.497956
3911 1 16.4125 2.98575 0.183152
315 1 9.29701 3.73073 0.582507
49 2 8.76911 4.66532 0.51279
3229 1 10.0316 4.28452 0.983712
4569 1 10.9244 4.2811 0.54841
5094 2 12.1074 4.12077 0.621762
2425 1 13.0729 4.53066 0.0184996
1065 2 13.1684 4.55034 1.19144
2727 1 14.2448 4.78534 0.831185
2236 1 14.5016 3.85751 0.6371
2745 1 15.3847 4.56465 0.823474
4341 1 15.971 3.8364 0.421664
5363 1 8.64869 5.72542 0.786677
5280 2 9.65677 5.57062 0.0458414
4614 1 10.4833 5.14959 0.680596
486 1 11.4918 5.15048 0.588975
3937 1 12.5701 5.26699 0.47465
206 1 13.1936 5.76743 1.23121
6390 2 13.6638 5.51246 0.161101
4467 1 14.2094 5.75993 1.15846
6114 2 14.9893 5.51584 0.368059
1962 2 16.1653 4.90117 0.0615631
5993 1 9.36111 6.37066 0.835688
1774 2 10.0507 6.87845 0.0656684
5623 1 10.2856 6.17322 1.14081
1736 1 10.7794 6.04506 0.284762
1484 1 11.5917 6.82384 0.164999
1971 2 11.4266 6.33126 1.14793
6180 2 12.5635 6.38614 0.507644
2491 1 13.6809 6.5444 0.688433
670 1 14.6511 6.56655 0.671974
1233 2 15.9997 6.27606 0.600207
5028 2 8.83484 7.35593 0.350895
3968 1 10.7822 7.22196 0.91927
3586 1 11.3099 8.06969 1.0413
1937 1 12.0014 7.41574 0.870633
3340 2 13.1355 7.53831 0.824416
4323 2 14.1793 7.45857 0.0494946
5665 1 14.1648 8.31548 0.739229
3265 1 14.1985 7.39221 1.18832
2847 1 15.2054 8.04426 0.189631
3082 2 15.3496 7.3569 1.06233
3353 2 16.3795 7.58163 0.278653
600 2 8.81296 8.5541 0.69153
6245 1 8.4207 9.53949 0.957528
3763 2 10.1273 8.37437 0.599196
5341 1 10.545 9.61682 0.112746
5834 2 11.365 8.88577 0.302737
2526 2 12.4148 8.62884 0.984183
1670 2 13.56 9.29517 0.859838
3802 2 14.8025 9.24477 0.802748
1461 2 15.8568 8.51884 1.01001
162 2 9.58805 9.59364 1.16509
3580 1 8.63344 10.4961 0.157289
995 2 9.72831 10.5974 0.301995
3727 1 10.5276 10.1067 0.939117
3566 2 11.6182 10.0602 0.69751
4356 1 12.574 9.58614 0.335851
4126 2 13.3603 10.4603 0.213465
3404 1 14.4832 10.2524 0.413476
841 2 15.2507 10.6083 1.15944
3108 2 15.9499 9.75307 0.518693
413 2 9.05887 0.793261 1.96998
5888 2 10.3514 0.61763 2.27974
5827 1 9.88864 0.02589 1.40709
5271 1 11.4498 0.705913 2.09149
4334 2 12.577 0.57761 2.31234
2340 1 13.2273 0.397712 1.38631
6001 1 14.7861 0.839672 1.61908
1762 1 15.802 0.639895 1.75254
3881 1 9.06314 1.753 1.24618
575 1 8.97757 1.86605 2.35674
440 1 9.85101 1.59421 1.9013
2400 2 10.9103 1.57773 1.57675
2577 1 12.004 1.56062 2.13644
3757 1 12.8693 1.51297 1.62463
2046 1 13.798 1.30576 1.48928
1574 1 13.4838 2.3673 1.896
1039 2 14.4431 1.8774 2.26811
3487 1 15.4501 1.62185 1.70427
582 2 16.3825 1.40417 2.36653
584 2 8.86962 2.80335 1.81504
2941 1 9.75146 3.26987 1.30695
5597 1 10.4979 2.79303 1.77926
437 2 9.82901 3.61413 2.35451
4541 1 11.6671 3.29144 1.49547
5354 2 11.4001 2.48017 2.30755
3788 1 12.5476 2.39779 2.08396
5430 2 12.7679 3.21867 1.33769
454 2 14.1325 3.00659 1.31832
76 1 15.1963 2.60118 1.6361
4816 1 16.098 2.3685 1.95966
4208 2 16.342 3.24932 1.30387
1024 1 9.26264 4.16306 1.571
583 1 8.49113 3.65213 1.22089
1627 2 16.8134 8.67192 9.27172
1400 1 10.3751 4.56006 1.89034
3612 1 11.326 4.45031 1.41317
977 2 11.1158 3.74292 2.31352
4463 1 12.1954 4.1196 1.84545
102 1 14.1031 4.10714 1.54729
2069 2 13.3411 3.6695 2.33576
2268 2 15.2025 3.77742 1.55329
944 1 16.2823 4.40691 1.33644
1244 1 8.73426 5.68629 1.99363
4178 2 9.58449 5.28093 1.3531
6059 1 10.9441 5.37979 1.49718
5571 1 12.7644 4.78776 2.28492
1567 2 12.1582 5.34095 1.48976
1534 1 12.8577 5.81528 2.25133
3247 2 13.7805 5.24765 2.08028
147 2 14.9373 4.98577 1.75158
5349 1 15.8762 5.33819 1.25595
5118 2 16.5827 5.81769 2.02578
4333 1 9.516 6.30564 1.8711
868 1 9.09304 7.15689 2.22402
2908 2 10.5573 6.8278 2.04929
67 2 12.5625 6.75019 1.72285
4537 2 13.8139 6.57286 1.86671
2544 2 15.1666 6.21197 1.61904
4582 1 16.1501 6.75429 1.67712
1100 1 8.67618 7.75392 1.52907
5120 2 9.7039 7.34684 1.28045
3623 1 10.577 7.9659 1.71339
1078 1 11.5184 7.34292 1.7483
3185 1 11.5572 8.33529 1.96828
5781 1 12.4949 7.84361 1.78562
3609 2 13.6259 8.30149 1.72677
2627 1 14.7152 7.26466 1.99874
2210 1 14.7674 8.24287 1.51053
1790 1 15.8098 7.64578 2.05057
5920 2 8.60613 9.45281 2.13543
2670 2 9.55395 8.53108 1.81743
2671 1 10.1417 9.50328 2.22132
654 2 10.7964 9.07646 1.41565
2193 1 11.8599 9.43571 1.60474
116 2 12.5076 8.8195 2.32659
754 1 13.3898 9.4386 2.03079
652 2 14.4693 9.24359 2.15414
360 1 15.4289 8.51694 2.15096
2610 2 15.6552 9.53888 1.76403
3258 2 16.5476 8.66275 2.13239
6044 2 8.7304 10.5035 1.32649
6052 2 9.49569 10.3792 2.38306
4987 1 11.8957 10.7625 1.57335
3275 2 10.9378 10.3061 1.95156
3451 2 12.7497 10.0986 1.38572
5210 2 14.0689 10.3152 1.52267