ITEM: TIMESTEP
0
ITEM: NUMBER OF ATOMS
1000
ITEM: BOX BOUNDS pp pp pp
0.0000000000000000e+00 2.8867500000000000e+01
0.0000000000000000e+00 2.8867500000000000e+01
-1.0000000000000000e+00 1.0000000000000000e+00
ITEM: ATOMS id type xu yu 
386 1 1.36679 0.980018 
279 1 0.350761 0.916203 
277 1 0.922216 28.9089 
644 1 2.20919 0.416448 
442 1 2.36996 1.43537 
779 2 2.93128 0.854994 
504 1 4.11223 0.533289 
601 1 3.17111 0.03782 
777 2 5.16192 0.450797 
228 1 4.67997 1.39444 
408 1 5.73824 1.11657 
699 2 6.48557 0.662969 
210 1 7.00071 1.40522 
389 1 7.38031 0.437197 
759 2 8.08446 0.100988 
724 2 7.88071 1.17135 
182 1 8.65317 0.70185 
757 2 9.59724 0.289403 
511 1 9.56262 1.14466 
481 1 10.4448 0.690989 
470 1 11.3796 0.2421 
722 2 11.1817 1.23308 
513 1 12.0979 0.981829 
153 1 12.879 0.324081 
815 2 13.015 1.19486 
574 1 13.7731 0.865359 
145 1 14.7622 0.382289 
800 2 15.2454 1.04999 
97 1 15.767 0.380334 
309 1 17.0373 1.3303 
928 2 16.1902 1.12603 
914 2 16.7444 0.521703 
898 2 17.7109 0.827549 
156 1 18.5543 0.529134 
127 1 17.4275 0.050289 
74 1 19.2909 1.22737 
715 2 19.5595 0.396764 
239 1 20.2992 0.796105 
137 1 21.2111 29.1882 
47 1 21.2378 1.36103 
36 1 22.084 29.7018 
33 1 22.9598 29.177 
751 2 22.8343 1.30168 
803 2 24.1435 0.495955 
463 1 23.6393 1.15947 
825 2 24.6079 1.25778 
443 1 25.1042 0.446369 
761 2 25.8723 29.6901 
315 1 26.6272 29.2198 
101 1 26.6092 1.37802 
154 1 27.5496 29.7899 
819 2 28.3641 29.6648 
261 1 -0.13043 28.8886 
214 1 0.685245 1.83261 
933 2 0.973859 2.68501 
35 1 0.0882839 2.70337 
54 1 1.61683 2.09098 
226 1 2.4117 2.75262 
623 1 3.60274 1.45935 
959 2 2.95361 2.09675 
523 1 4.23216 2.26374 
540 1 3.41932 2.85866 
56 1 5.44461 2.1125 
720 2 5.0382 2.82251 
806 2 6.23024 1.80304 
6 1 6.67877 2.57285 
306 1 7.62134 2.1395 
22 1 8.63941 1.70728 
572 1 8.51662 2.73913 
542 1 9.56604 2.24868 
312 1 10.5426 1.80367 
355 1 10.4181 2.88019 
827 2 11.2008 2.79165 
14 1 11.5551 2.01586 
128 1 12.5857 2.01252 
561 1 13.5655 1.89731 
16 1 14.3236 2.62079 
296 1 13.2152 2.86799 
106 1 14.515 1.60466 
501 1 15.5729 1.82951 
697 2 15.1741 2.64079 
821 2 16.4455 2.05047 
301 1 17.0182 2.74462 
13 1 18.2346 1.56819 
833 2 17.4779 2.04239 
219 1 18.1449 2.69174 
486 1 20.1936 1.87879 
353 1 19.0688 2.25923 
405 1 20.9835 2.40617 
584 1 22.168 1.94422 
843 2 23.3129 2.13954 
196 1 24.3484 2.09739 
630 1 25.3434 1.59005 
857 2 25.0908 2.46592 
224 1 25.8185 2.8826 
918 2 26.0444 2.079 
193 1 26.8737 2.52721 
459 1 -0.370923 1.66515 
929 2 -1.39615 1.80002 
391 1 27.8571 2.54195 
238 1 0.155455 3.72014 
951 2 0.907862 4.13086 
227 1 1.31549 3.4297 
668 2 2.14241 3.55669 
328 1 2.93694 3.83439 
774 2 3.79019 3.89827 
23 1 4.44979 3.35233 
257 1 5.74586 3.26969 
663 2 5.23857 3.88509 
155 1 4.5256 4.30173 
117 1 6.72776 3.63675 
837 2 6.16307 4.32778 
510 1 7.65078 3.1791 
430 1 8.49395 3.75432 
524 1 7.67094 4.27226 
324 1 9.46249 3.31827 
910 2 10.3494 3.73895 
181 1 11.2229 3.669 
80 1 12.1162 2.96802 
495 1 12.2269 4.01053 
687 2 13.9928 3.38807 
41 1 13.2419 3.94964 
369 1 14.2854 4.16702 
300 1 15.0059 3.46579 
979 2 15.7479 3.94189 
332 1 15.9579 2.95192 
191 1 16.6264 3.70652 
208 1 17.5719 3.59884 
43 1 19.9329 2.89183 
216 1 18.8038 3.60159 
897 2 19.6512 3.67859 
547 1 20.4754 4.02881 
341 1 21.6294 3.14643 
846 2 20.8085 3.27718 
664 2 21.3478 4.01227 
134 1 22.6668 2.91839 
646 1 22.1906 4.00433 
874 2 23.0704 3.72791 
350 1 23.8016 2.93237 
573 1 23.8944 3.93846 
398 1 24.8284 3.29164 
247 1 25.7964 3.91993 
795 2 26.5325 3.39338 
380 1 27.4025 3.44748 
140 1 26.7252 4.25483 
756 2 28.2802 3.26608 
240 1 28.0296 4.18453 
891 2 28.9053 4.54195 
493 1 29.6757 4.98336 
982 2 0.329583 5.63008 
221 1 1.77775 4.41701 
776 2 1.64952 5.24206 
108 1 2.40613 5.53436 
864 2 2.64217 4.67498 
52 1 3.53467 4.70711 
447 1 4.0974 5.70459 
949 2 3.23573 5.60775 
923 2 4.79395 5.10335 
258 1 5.51162 4.72408 
423 1 5.34755 5.76706 
863 2 6.03279 5.38067 
427 1 6.7321 4.91686 
876 2 7.16672 5.67295 
643 1 7.94865 5.24053 
786 2 8.56388 4.5976 
520 1 9.43995 4.34347 
693 2 9.85976 5.14791 
163 1 9.11598 5.39169 
413 1 10.4324 4.54974 
89 1 10.6193 5.53412 
164 1 11.4267 4.78179 
199 1 12.4635 5.02225 
110 1 11.7597 5.76572 
388 1 13.5267 4.92135 
944 2 14.3007 5.11358 
292 1 15.1231 4.64357 
791 2 15.4627 5.36003 
206 1 17.2022 4.61569 
225 1 16.1933 4.79182 
508 1 17.0358 5.60913 
497 1 18.2934 4.5371 
832 2 17.8223 5.30598 
762 2 18.9158 5.1785 
500 1 19.4698 4.53027 
563 1 19.6199 5.67028 
348 1 20.4238 5.08052 
192 1 21.392 4.85481 
530 1 22.5233 5.46929 
531 1 23.125 4.55862 
778 2 23.3722 5.39928 
505 1 24.1195 4.95153 
714 2 24.6836 5.60427 
588 1 24.9199 4.38546 
205 1 25.4511 5.36672 
836 2 26.0616 4.7204 
509 1 26.5316 5.48774 
428 1 27.4769 5.01111 
149 1 28.4685 5.29767 
377 1 1.14591 6.02126 
858 2 1.19132 6.89688 
865 2 0.452137 6.4773 
688 2 1.97494 6.30574 
596 1 2.03091 7.1286 
178 1 2.91008 6.49238 
26 1 3.93543 6.67159 
704 2 4.74684 6.34732 
469 1 5.68427 6.76667 
376 1 6.4355 6.09849 
869 2 6.57435 6.89682 
590 1 7.34215 6.48867 
96 1 8.39055 6.23495 
978 2 7.99726 7.09855 
866 2 9.23455 6.35802 
553 1 10.0922 6.47093 
752 2 10.9865 6.36039 
798 2 12.5362 7.18556 
104 1 12.5783 6.34284 
304 1 11.6425 7.00826 
195 1 13.6133 5.97302 
878 2 14.2336 6.49087 
331 1 13.4223 6.96496 
345 1 14.77 5.79347 
40 1 14.9334 6.93142 
29 1 16.0361 5.97111 
652 2 15.9108 6.80766 
231 1 16.7114 6.69415 
784 2 17.5863 6.29437 
48 1 18.4386 5.9319 
972 2 18.3405 6.81575 
139 1 17.6217 7.18386 
809 2 19.1593 6.39989 
834 2 19.929 6.70614 
320 1 21.6244 5.85425 
382 1 20.5802 6.11453 
672 2 21.2749 6.60562 
115 1 20.6699 7.21477 
578 1 22.102 6.75305 
603 1 23.0428 6.3613 
354 1 24.0499 6.09165 
666 2 24.4113 6.95926 
302 1 25.031 6.36931 
82 1 25.7656 7.13516 
946 2 25.869 6.12306 
612 1 26.5832 6.48385 
740 2 27.3597 6.92205 
950 2 28.4302 6.17393 
554 1 27.596 6.04401 
190 1 28.2031 6.9988 
1 1 1.21936 7.77604 
515 1 29.2152 7.31916 
317 1 0.315037 8.36563 
727 2 1.19894 8.60395 
841 2 2.03896 7.98899 
685 2 2.81432 7.44716 
168 1 2.74685 8.34923 
305 1 3.62534 7.6713 
871 2 3.64075 8.50192 
339 1 4.78818 7.2295 
971 2 5.44922 7.95206 
409 1 4.52655 8.20213 
457 1 6.24187 7.65754 
157 1 7.23329 7.50606 
702 2 8.10627 8.01933 
527 1 7.4668 8.48771 
998 2 9.67115 7.25266 
456 1 8.81604 7.29236 
696 2 9.18924 8.12838 
711 2 10.0931 8.01891 
916 2 10.7078 7.23721 
492 1 10.9913 7.98382 
461 1 12.5413 8.04899 
991 2 11.7484 8.3916 
894 2 13.3602 7.84794 
706 2 14.178 7.37168 
541 1 14.3291 8.23716 
907 2 15.1531 7.77289 
167 1 15.3879 8.62067 
653 2 16.8597 7.60395 
488 1 15.9598 7.71035 
657 2 16.5511 8.46658 
956 2 18.3217 7.73599 
1000 2 17.4884 8.16496 
91 1 18.2468 8.59326 
364 1 19.0742 7.27358 
671 2 19.0333 8.21991 
730 2 19.8881 7.60315 
94 1 20.4395 8.1992 
188 1 21.6039 7.83292 
831 2 21.1481 8.6552 
404 1 22.6333 7.54517 
820 2 22.4337 8.3407 
284 1 23.5789 7.27633 
691 2 23.2276 8.0467 
537 1 24.0137 8.33681 
638 1 24.836 7.64938 
319 1 25.8997 8.15183 
51 1 26.7527 7.57423 
334 1 26.8568 8.59924 
829 2 27.5804 7.83341 
996 2 -0.361156 7.80795 
557 1 28.1079 8.55378 
888 2 0.824907 9.39348 
410 1 0.209593 9.97 
570 1 1.69084 9.29198 
856 2 2.50962 9.13963 
593 1 2.44898 10.0068 
200 1 3.33919 9.40847 
713 2 3.98209 9.94841 
477 1 4.32298 9.14948 
85 1 4.93709 9.88774 
529 1 5.36124 8.86336 
478 1 6.44398 8.7109 
327 1 5.91816 9.71461 
267 1 7.02789 9.62979 
877 2 7.87402 9.40135 
349 1 8.47667 8.85941 
805 2 9.36136 8.9639 
151 1 8.997 9.76286 
851 2 9.93764 9.71315 
336 1 10.178 8.86765 
945 2 11.0049 8.83968 
378 1 10.9327 9.66651 
860 2 12.6082 8.88134 
144 1 11.8844 9.27817 
222 1 12.8591 9.74288 
50 1 13.4205 8.7089 
908 2 13.7495 9.47917 
384 1 14.5764 9.34085 
656 2 15.4414 9.64228 
474 1 16.2051 9.24316 
771 2 16.6819 9.94465 
326 1 17.1822 9.10638 
790 2 17.9763 9.43508 
974 2 18.7831 9.99233 
742 2 19.8014 8.70723 
962 2 18.8941 9.14326 
919 2 19.6845 9.66602 
421 1 20.4971 9.37657 
814 2 21.3361 9.66769 
270 1 21.9479 9.03959 
662 2 22.6024 9.56999 
76 1 23.0578 8.88335 
939 2 24.2371 9.13184 
659 2 23.5156 9.63594 
212 1 24.3505 10.0152 
600 1 24.9822 8.69932 
736 2 25.0641 9.53485 
482 1 25.9269 9.20602 
399 1 26.884 9.74889 
859 2 -0.11656 9.16055 
782 2 27.5125 9.14386 
595 1 27.9928 9.80086 
441 1 1.2749 10.2428 
68 1 0.399107 11.0207 
467 1 1.36981 11.2835 
625 1 2.44972 10.9636 
472 1 3.42244 10.5982 
484 1 4.41887 10.8886 
146 1 5.45995 10.7872 
5 1 6.48865 10.6684 
970 2 8.24782 10.2215 
619 1 7.56185 10.6661 
758 2 8.07712 11.3386 
632 1 8.7448 10.86 
362 1 9.73801 10.509 
921 2 9.59914 11.3733 
842 2 10.548 10.5238 
538 1 11.3184 10.6747 
402 1 10.4327 11.3167 
765 2 11.2746 11.5213 
673 2 12.0901 10.2049 
340 1 12.2965 11.0484 
303 1 13.8303 10.286 
767 2 13.0115 10.6032 
883 2 14.3262 11.0313 
60 1 13.5467 11.2985 
560 1 14.8866 10.3474 
684 2 15.4399 11.0968 
133 1 15.9177 10.3437 
431 1 16.2169 11.3414 
532 1 17.0825 10.7201 
476 1 17.9994 10.2907 
83 1 17.9547 11.372 
824 2 18.6869 10.8889 
243 1 19.4782 10.5164 
823 2 19.9123 11.228 
739 2 20.3735 10.3868 
466 1 20.7617 11.1999 
760 2 21.3303 10.5586 
849 2 22.2041 10.4161 
365 1 21.8379 11.2946 
754 2 22.6965 11.13 
567 1 23.0604 10.3671 
682 2 23.8435 10.641 
172 1 23.4673 11.4836 
599 1 24.5412 11.2054 
890 2 25.0882 10.3935 
45 1 25.6059 11.0195 
942 2 26.0456 10.11 
120 1 26.5919 10.8387 
875 2 -1.40132 10.4568 
835 2 -0.435467 10.4897 
491 1 -1.04703 11.1991 
881 2 0.686012 11.8136 
396 1 1.31737 12.3644 
587 1 28.9886 12.45 
654 2 2.12503 11.7618 
119 1 2.42828 12.5271 
418 1 4.11653 11.8221 
162 1 3.11579 11.739 
480 1 3.50011 12.7232 
220 1 5.1477 11.8312 
698 2 4.37509 12.6803 
737 2 5.71276 12.4143 
394 1 6.19563 11.7231 
975 2 6.76167 12.3864 
534 1 7.22562 11.6002 
30 1 7.89896 12.34 
387 1 8.87436 12.8386 
462 1 8.84527 11.8165 
253 1 9.80531 12.3633 
439 1 10.8686 12.3006 
985 2 11.411 12.9538 
559 1 11.8712 12.0535 
708 2 12.6652 11.7825 
293 1 12.3455 12.9027 
297 1 13.2477 12.4054 
992 2 14.0088 12.0478 
249 1 14.1872 12.907 
393 1 14.8535 11.7498 
785 2 14.991 12.5584 
318 1 15.7502 12.1987 
948 2 17.0897 11.5608 
437 1 16.7358 12.2941 
546 1 17.8 12.3695 
855 2 18.6363 12.3243 
624 1 19.1258 11.6676 
123 1 19.3631 12.7923 
873 2 20.1662 12.9814 
615 1 20.1443 12.0585 
813 2 21.2063 11.9376 
15 1 21.0282 12.8254 
792 2 22.8571 12.0197 
597 1 22.0288 12.3064 
952 2 22.651 12.8901 
799 2 24.1522 11.9652 
610 1 23.5254 12.552 
551 1 24.6104 12.6771 
717 2 25.0729 11.9047 
73 1 25.6975 12.5745 
845 2 26.0677 11.7983 
506 1 26.9632 11.7291 
995 2 26.5507 12.5104 
291 1 27.9218 12.2073 
679 2 28.63 11.7017 
130 1 0.868781 13.2773 
234 1 0.68096 14.3432 
651 2 1.7353 13.1111 
31 1 1.72332 14.0792 
311 1 2.61491 13.6476 
789 2 3.39601 13.6343 
158 1 4.23672 13.5487 
372 1 5.15411 13.0876 
645 1 5.57552 14.0418 
361 1 6.23703 13.0957 
818 2 6.72508 13.7895 
84 1 7.2512 13.1415 
828 2 8.13376 13.3971 
438 1 7.56417 14.1125 
419 1 8.80404 13.8856 
676 2 9.54683 13.3666 
607 1 9.89318 14.1954 
611 1 10.4822 13.2865 
114 1 11.5115 13.8099 
880 2 10.7187 14.0943 
900 2 12.3849 13.8503 
383 1 13.1851 13.4851 
11 1 14.143 14.1951 
807 2 13.2957 14.2669 
371 1 15.091 13.4461 
381 1 15.8069 14.3015 
637 1 16.1104 13.2678 
934 2 16.6554 13.9109 
189 1 17.2249 13.2616 
580 1 18.3825 13.1714 
725 2 17.9033 13.8735 
316 1 18.6238 14.328 
994 2 19.1239 13.7069 
211 1 19.9868 13.7937 
198 1 20.972 14.0121 
487 1 21.9317 13.3806 
940 2 22.4882 13.9592 
840 2 23.9459 13.2237 
395 1 23.2204 13.585 
732 2 23.7978 14.1559 
78 1 24.6098 13.7861 
909 2 25.2234 13.2794 
275 1 25.6522 14.0462 
896 2 26.1509 13.2894 
518 1 27.2115 13.0114 
57 1 26.7239 13.921 
152 1 -0.107973 13.6283 
690 2 28.0788 13.1621 
633 1 27.7921 14.0057 
628 1 0.0451253 15.2365 
674 2 0.958508 15.2655 
585 1 1.88424 15.1495 
853 2 2.54593 14.575 
507 1 3.41222 14.4519 
49 1 2.97292 15.4046 
781 2 3.85577 15.1554 
165 1 4.5867 14.4817 
351 1 5.61126 15.1707 
294 1 4.61514 15.5396 
591 1 6.45803 14.6072 
741 2 6.44113 15.4488 
379 1 7.3178 15.1784 
558 1 8.33149 14.8535 
183 1 8.10387 15.8639 
248 1 9.11946 15.5442 
955 2 9.1701 14.6405 
766 2 9.92365 15.1336 
65 1 10.7926 15.063 
169 1 12.474 14.687 
989 2 11.6279 14.6109 
390 1 11.7752 15.5101 
744 2 12.666 15.4719 
18 1 13.4171 15.0765 
658 2 14.3351 15.1348 
838 2 14.9044 14.5086 
446 1 15.2705 15.3331 
726 2 16.4419 14.8182 
124 1 16.2647 15.6349 
958 2 17.1238 15.5069 
122 1 17.3513 14.5714 
887 2 18.1954 15.0198 
72 1 17.9104 15.8087 
852 2 19.4342 14.5915 
450 1 19.0739 15.347 
854 2 19.8539 15.6464 
606 1 20.2049 14.9007 
867 2 21.1231 14.9899 
494 1 21.7089 15.6285 
373 1 21.8931 14.6138 
954 2 22.4726 15.2735 
28 1 23.0652 14.5843 
969 2 23.3463 15.5786 
522 1 23.9832 14.9541 
981 2 24.9983 14.7871 
460 1 24.6672 15.7221 
111 1 25.6667 15.3504 
701 2 26.2169 14.6342 
268 1 27.0052 14.9719 
810 2 27.3781 15.8023 
879 2 -0.287639 14.5035 
568 1 -0.920792 15.0531 
635 1 0.566053 16.0934 
126 1 0.413906 17.213 
705 2 1.53381 15.9438 
129 1 2.35409 16.1818 
273 1 1.47958 16.7641 
213 1 2.39999 17.2919 
967 2 3.06584 16.6258 
260 1 3.81218 16.0702 
187 1 3.75178 17.1183 
385 1 4.73603 16.6246 
976 2 5.51158 16.9981 
3 1 5.82037 16.2154 
159 1 7.11594 16.2889 
112 1 6.38354 17.0609 
850 2 7.83239 16.6807 
539 1 8.64202 16.7899 
893 2 9.46462 16.3014 
464 1 9.80051 17.0998 
731 2 11.0901 16.0045 
412 1 10.2502 15.9661 
186 1 10.8721 16.8122 
90 1 11.9179 16.5139 
816 2 12.7341 16.3561 
436 1 12.6301 17.2238 
920 2 13.4846 15.8893 
241 1 13.5301 16.7321 
38 1 14.3545 16.0196 
917 2 14.578 16.8672 
77 1 15.3513 16.3953 
738 2 16.1898 16.4561 
70 1 17.0276 16.3956 
299 1 16.2164 17.3055 
694 2 17.8865 16.6647 
102 1 18.7164 16.9856 
862 2 18.7272 16.1067 
37 1 19.6408 16.437 
490 1 20.634 15.9036 
329 1 20.5855 16.9445 
150 1 21.5799 16.666 
571 1 22.6688 16.1721 
649 1 23.7868 16.2972 
905 2 24.6194 16.5269 
648 1 25.5589 16.4857 
984 2 26.4244 16.9114 
175 1 26.449 16.0763 
514 1 27.3317 16.8466 
283 1 -0.604985 17.2089 
448 1 -0.739245 16.1242 
936 2 0.707074 17.9789 
63 1 1.55317 17.8597 
886 2 2.40451 18.3296 
46 1 3.28997 18.0983 
912 2 4.09041 18.1644 
295 1 4.72164 17.5936 
244 1 4.82089 18.7238 
322 1 5.61477 17.8064 
21 1 6.65444 18.0426 
184 1 7.42981 17.4021 
556 1 7.63111 18.3814 
92 1 8.54428 17.7764 
170 1 9.55024 18.0934 
440 1 10.6481 17.8519 
454 1 11.6846 17.53 
453 1 12.6132 18.2033 
367 1 11.6032 18.5691 
977 2 13.3347 17.7518 
433 1 13.7755 18.6051 
179 1 14.1518 17.606 
346 1 15.1897 17.5303 
185 1 14.7662 18.469 
444 1 15.8671 18.3696 
746 2 17.1371 17.3328 
483 1 16.9129 18.1445 
631 1 17.935 17.6979 
750 2 17.6588 18.5586 
266 1 18.5479 18.5896 
931 2 18.8543 17.8402 
148 1 19.6463 17.4851 
535 1 19.5595 18.5431 
2 1 20.4661 18.1065 
141 1 21.4252 17.688 
233 1 21.1899 18.7576 
171 1 22.519 17.3592 
406 1 22.1984 18.3435 
716 2 23.0375 18.0295 
420 1 23.5902 17.4088 
594 1 23.5441 18.6415 
986 2 24.1525 18.0544 
548 1 24.6691 17.3724 
695 2 25.1278 18.1558 
499 1 25.7281 17.4998 
207 1 26.7686 17.7378 
794 2 26.1336 18.2463 
872 2 26.9586 18.5711 
215 1 -0.164147 18.1508 
964 2 27.711 17.8516 
403 1 27.8397 18.7596 
132 1 29.5556 18.8113 
700 2 1.15808 19.6721 
86 1 29.1789 19.8235 
87 1 1.73965 18.924 
749 2 2.10662 19.7338 
555 1 2.72359 19.0829 
817 2 3.45976 19.8118 
136 1 3.7537 19.0178 
904 2 5.32786 19.6736 
201 1 4.51517 19.7839 
7 1 5.8277 18.8885 
121 1 6.8922 19.0798 
579 1 6.19523 19.8446 
400 1 8.01868 19.3211 
626 1 7.23757 20.0861 
735 2 9.77203 18.9056 
434 1 8.92905 18.9049 
407 1 9.67982 19.7371 
533 1 8.69521 20.0334 
142 1 10.6758 19.058 
796 2 10.5887 19.906 
743 2 11.5454 19.5125 
675 2 12.9809 18.9675 
32 1 12.3882 19.5689 
246 1 13.4955 19.5891 
229 1 14.6132 19.5765 
655 2 15.3886 19.0862 
922 2 15.3734 19.9809 
4 1 16.113 19.618 
999 2 16.5595 18.8994 
321 1 17.2468 19.3482 
930 2 18.249 19.3624 
61 1 19.1475 19.5822 
581 1 20.2744 19.3481 
801 2 21.2239 19.6838 
298 1 22.0573 19.4146 
745 2 22.7931 19.071 
174 1 23.477 19.6374 
753 2 24.4436 19.6873 
269 1 24.5669 18.8191 
902 2 25.4707 18.9271 
517 1 25.3492 19.7329 
990 2 26.3036 19.245 
64 1 27.1156 19.52 
289 1 26.3361 20.1375 
770 2 28.7348 19.0698 
9 1 28.0967 19.6876 
67 1 29.4202 20.8298 
953 2 1.28197 21.2386 
209 1 1.61785 20.4276 
203 1 2.15186 21.275 
569 1 2.72323 20.3827 
780 2 3.0734 21.1975 
271 1 3.73175 20.647 
575 1 3.96328 21.6473 
230 1 5.42971 20.5281 
960 2 4.58939 20.7356 
335 1 4.99727 21.4789 
783 2 6.42694 20.6692 
58 1 6.02532 21.4083 
475 1 7.03801 21.2043 
75 1 8.03398 20.8459 
870 2 8.57102 21.4602 
344 1 9.17712 20.9067 
173 1 10.1822 20.6724 
217 1 11.2374 20.5629 
733 2 11.3197 21.5217 
95 1 12.178 21.283 
963 2 12.0925 20.4025 
665 2 13.1023 21.4186 
502 1 13.0636 20.5052 
830 2 14.0586 20.237 
314 1 13.8941 21.1247 
468 1 14.8157 20.5965 
24 1 15.8696 20.6758 
997 2 15.7649 21.613 
426 1 16.8478 20.3328 
325 1 16.6301 21.3315 
598 1 17.8819 20.211 
913 2 17.4735 20.9284 
116 1 18.5386 21.1776 
689 2 18.7185 20.3734 
617 1 19.5714 20.6171 
822 2 19.3437 21.4935 
342 1 20.6234 20.353 
88 1 20.2574 21.3998 
926 2 21.0863 21.2082 
135 1 21.6364 20.4577 
755 2 22.5282 20.2652 
34 1 22.4093 21.076 
723 2 23.2566 21.5775 
479 1 23.3414 20.6746 
204 1 24.066 21.3704 
452 1 24.5724 20.4844 
710 2 25.5392 20.5711 
223 1 25.0926 21.5466 
12 1 26.0604 21.2221 
677 2 26.9773 21.1808 
592 1 27.3614 20.4594 
458 1 28.4075 20.7235 
425 1 27.7395 21.5592 
55 1 0.944755 22.0314 
422 1 1.05219 23.0466 
577 1 0.0852632 22.7265 
566 1 1.93802 22.3888 
131 1 2.92862 22.0587 
262 1 3.72651 22.7493 
647 1 4.69074 22.4642 
250 1 5.75289 22.3576 
980 2 6.37128 22.9238 
308 1 6.84041 22.1935 
924 2 7.6194 21.8037 
545 1 8.31275 22.2862 
769 2 7.52948 22.7281 
634 1 9.39296 21.9678 
932 2 9.06815 22.7167 
202 1 10.3394 21.6518 
642 1 10.1064 22.6377 
237 1 11.162 22.3351 
734 2 11.9723 22.1049 
255 1 12.7842 22.2464 
586 1 12.0421 23.0044 
549 1 13.804 22.1233 
485 1 14.6169 22.7536 
451 1 14.9012 21.6842 
286 1 15.6791 22.4414 
627 1 16.7138 22.513 
310 1 17.6333 21.7793 
368 1 18.5679 22.2022 
608 1 17.7221 22.7986 
25 1 19.6497 22.2366 
892 2 19.1992 22.9745 
8 1 20.8224 22.2707 
166 1 21.6831 21.8132 
622 1 21.7595 22.8508 
613 1 22.6741 22.1597 
764 2 22.6122 23.0006 
370 1 23.673 22.3584 
100 1 24.4413 23.0511 
935 2 24.5194 22.179 
424 1 25.3334 22.6172 
988 2 26.0013 22.0522 
589 1 26.875 22.0222 
66 1 26.3506 22.8951 
703 2 27.1894 22.9732 
259 1 28.7879 21.7593 
290 1 27.9406 22.5956 
811 2 29.256 23.6301 
236 1 1.21373 24.079 
411 1 29.1066 24.4675 
366 1 2.63789 23.1155 
718 2 1.77861 23.4679 
498 1 2.42878 24.1011 
254 1 3.50507 23.7884 
536 1 4.46072 23.4747 
812 2 5.33144 23.1042 
839 2 5.13252 24.0293 
313 1 5.98663 23.671 
81 1 7.0099 23.4505 
503 1 7.01875 24.5199 
847 2 7.67702 23.9725 
263 1 8.18605 23.3354 
709 2 8.74888 24.1063 
360 1 9.2695 23.5208 
748 2 11.0646 23.2019 
44 1 10.3095 23.6536 
445 1 11.3427 24.031 
797 2 10.5464 24.4916 
281 1 12.7587 23.8371 
27 1 13.4982 23.1183 
987 2 13.6001 24.0274 
338 1 14.3847 23.7959 
99 1 15.376 23.412 
618 1 15.2136 24.4738 
660 2 16.2444 23.1854 
528 1 17.019 23.5325 
680 2 16.8961 24.4305 
650 1 16.1635 24.0749 
552 1 18.4922 23.4937 
330 1 17.7397 24.2727 
416 1 20.1207 23.1336 
641 1 19.4152 23.8909 
903 2 20.9776 23.1099 
414 1 20.4249 24.098 
272 1 21.5131 23.8817 
582 1 22.6135 23.9145 
465 1 23.5255 23.4846 
775 2 23.34 24.3508 
957 2 24.2683 23.8897 
280 1 25.1383 23.7949 
793 2 25.9392 23.597 
640 1 26.0294 24.5337 
160 1 26.7948 23.8554 
968 2 27.6515 23.9265 
605 1 28.4011 23.6206 
802 2 0.968611 24.9477 
53 1 29.3935 25.7108 
562 1 30.4231 25.5451 
884 2 1.8176 24.7045 
274 1 2.5855 25.2202 
670 2 3.24016 24.6193 
512 1 3.59391 25.3852 
519 1 4.22765 24.5942 
768 2 5.01899 25.0456 
576 1 5.69824 25.6763 
71 1 4.57306 25.839 
358 1 5.93094 24.6753 
961 2 6.56257 25.2695 
449 1 7.28808 25.6607 
347 1 8.08028 24.6966 
496 1 8.30764 25.8304 
721 2 8.90363 25.0627 
363 1 9.61385 24.557 
550 1 9.34457 25.886 
525 1 10.2409 25.3876 
39 1 11.2109 25.0256 
276 1 12.1454 24.6336 
614 1 11.9966 25.7376 
773 2 12.7788 25.4716 
602 1 14.3147 24.898 
435 1 13.2352 24.7554 
848 2 13.6933 25.5206 
787 2 15.0373 25.3816 
471 1 15.9431 25.2068 
489 1 17.0447 25.2605 
429 1 18.7015 24.5622 
282 1 18.0596 25.3588 
609 1 19.6937 24.896 
669 2 18.9154 25.4182 
98 1 19.7454 25.9532 
93 1 21.0924 24.8264 
728 2 20.4179 25.4023 
620 1 21.0197 25.9597 
788 2 21.9287 24.5801 
180 1 21.9111 25.4989 
10 1 22.7384 24.9427 
729 2 22.8171 25.7903 
937 2 23.534 25.2167 
242 1 24.2571 24.7341 
899 2 24.699 25.5513 
925 2 25.1156 24.6459 
417 1 25.536 25.5026 
941 2 26.3867 25.3039 
103 1 27.07 24.8239 
712 2 27.2277 25.6651 
252 1 28.0779 24.6769 
692 2 28.7906 25.1995 
565 1 28.0937 25.6886 
42 1 30.0572 26.5987 
521 1 29.2258 27.2331 
661 2 28.9877 26.4322 
629 1 2.22906 26.3871 
868 2 1.86677 27.2779 
352 1 2.97506 27.2338 
719 2 3.09991 26.2123 
59 1 3.87765 26.5973 
17 1 4.83492 -1.81745 
927 2 5.29919 26.384 
176 1 6.0224 26.8197 
681 2 6.4528 26.1064 
251 1 7.03743 26.7117 
772 2 7.87343 26.5454 
636 1 8.36131 27.2702 
895 2 7.53881 27.3997 
763 2 8.77924 -2.35213 
374 1 9.5868 26.9003 
808 2 10.1515 26.2462 
616 1 10.9675 26.0158 
473 1 10.7407 -1.84784 
401 1 11.7357 26.7238 
826 2 12.501 26.4207 
105 1 13.3046 26.3688 
901 2 14.0721 26.8215 
161 1 14.3783 25.9872 
20 1 15.4651 26.0787 
583 1 14.864 -1.8622 
686 2 15.7285 26.9624 
118 1 16.5254 26.257 
218 1 16.5602 27.335 
197 1 17.6419 26.2375 
683 2 17.3322 27.0082 
245 1 18.1823 27.104 
356 1 18.6576 26.25 
147 1 19.49 26.9321 
678 2 20.3465 26.6451 
337 1 21.1539 26.9904 
455 1 22.0293 26.5103 
415 1 23.0417 26.6035 
938 2 23.7878 26.0966 
844 2 23.9098 26.9492 
543 1 24.622 26.4448 
707 2 25.0753 27.166 
947 2 25.5002 26.3057 
138 1 25.9544 27.0859 
285 1 26.3611 26.1099 
125 1 27.2423 26.5624 
943 2 26.7174 27.2721 
62 1 28.2102 26.8401 
69 1 1.2513 27.8975 
911 2 0.433019 28.1029 
747 2 1.70285 -0.260217 
343 1 2.34739 -0.817745 
993 2 3.17803 -0.816507 
885 2 3.9241 -0.413954 
256 1 3.95732 -1.26201 
107 1 4.74541 -0.313272 
177 1 5.63598 -1.11211 
564 1 5.97205 -0.0692957 
906 2 6.89766 -0.278105 
604 1 6.65298 -1.1062 
526 1 7.69602 -0.65292 
278 1 8.74223 -0.34925 
983 2 9.17547 27.684 
264 1 9.76759 -0.581725 
882 2 10.5474 -0.105737 
667 2 10.1356 -1.2943 
79 1 11.0032 28.0536 
143 1 12.5679 27.4352 
861 2 11.6624 27.5998 
307 1 12.1211 28.4339 
966 2 12.9526 28.2135 
359 1 13.5913 27.5958 
288 1 13.8502 28.6213 
639 1 14.5646 -0.868752 
516 1 15.707 27.8381 
889 2 15.1901 -0.309339 
621 1 16.5419 -0.480668 
235 1 17.4598 -1.00756 
333 1 18.3892 28.3966 
973 2 18.8602 27.6658 
109 1 19.3978 -0.508239 
113 1 20.295 -1.27888 
232 1 20.3572 -0.225251 
397 1 21.2608 28.0075 
392 1 22.2563 27.4528 
965 2 22.8521 28.3676 
357 1 22.0491 28.6426 
323 1 23.8242 28.5769 
375 1 23.2715 27.605 
432 1 24.3786 27.7166 
915 2 25.7942 28.7351 
804 2 24.7421 28.5207 
19 1 25.4067 27.9678 
194 1 26.4615 28.1211 
544 1 27.4415 27.6653 
265 1 27.6939 28.7566 
287 1 28.4324 27.9382 
ITEM: TIMESTEP
5000
ITEM: NUMBER OF ATOMS
1000
ITEM: BOX BOUNDS pp pp pp
0.0000000000000000e+00 2.8867500000000000e+01
0.0000000000000000e+00 2.8867500000000000e+01
-1.0000000000000000e+00 1.0000000000000000e+00
ITEM: ATOMS id type xu yu 
386 1 1.29999 1.04116 
279 1 0.217892 0.940835 
644 1 1.87967 0.123678 
442 1 2.26998 1.12664 
779 2 3.06933 0.749024 
504 1 3.86951 0.570411 
777 2 4.8045 0.56136 
408 1 5.54582 1.03133 
228 1 4.54011 1.34173 
699 2 6.34966 0.820716 
389 1 7.19482 0.635318 
210 1 6.85213 1.61851 
759 2 7.95899 0.132613 
724 2 7.65583 1.42083 
182 1 8.2402 0.87583 
757 2 8.92407 0.172759 
511 1 9.27374 0.996962 
481 1 10.0735 0.387145 
722 2 10.8506 0.832604 
470 1 11.1921 0.0727814 
513 1 11.9506 0.709031 
153 1 12.7993 0.100825 
815 2 12.9271 1.00705 
574 1 13.802 0.647586 
800 2 15.2711 1.03106 
97 1 15.8339 0.317894 
145 1 14.7816 0.295833 
309 1 17.0393 1.27177 
928 2 16.1605 1.05584 
914 2 16.732 0.296515 
898 2 17.8442 0.995173 
156 1 18.6941 0.540727 
127 1 17.6193 0.155317 
74 1 19.3924 1.40082 
715 2 19.5956 0.600135 
239 1 20.3789 0.900814 
137 1 21.3763 29.2823 
47 1 21.2638 1.47832 
36 1 22.2218 29.9136 
33 1 23.1659 29.5623 
803 2 24.0884 0.764121 
323 1 24.0233 28.7037 
443 1 24.9066 0.448892 
761 2 25.6666 29.9292 
915 2 25.7361 28.9016 
315 1 26.3456 29.4445 
154 1 27.4317 29.896 
819 2 28.2245 29.5659 
261 1 -0.217441 28.7912 
214 1 0.557283 1.89562 
933 2 1.02309 2.75348 
54 1 1.57965 2.11048 
959 2 2.51596 2.07294 
623 1 3.32051 1.61507 
523 1 4.11286 2.25626 
540 1 3.12899 2.7238 
56 1 5.19505 2.16919 
720 2 4.71017 2.86277 
806 2 5.99795 1.70332 
6 1 6.27468 2.48529 
306 1 7.51584 2.59003 
22 1 8.34651 1.95014 
572 1 8.6543 2.94269 
542 1 9.42799 2.09447 
312 1 10.2184 1.401 
355 1 10.4408 2.4082 
14 1 11.282 1.55963 
827 2 11.3945 2.39788 
128 1 12.4521 1.72821 
561 1 13.4956 1.71199 
16 1 14.1776 2.485 
296 1 13.1413 2.71836 
106 1 14.5454 1.46781 
501 1 15.6211 1.77096 
697 2 14.987 2.30615 
332 1 15.9057 2.74788 
821 2 16.482 2.00926 
301 1 17.0499 2.59774 
13 1 18.3666 1.595 
833 2 17.6046 1.91821 
219 1 18.2524 2.60051 
353 1 19.2512 2.43041 
486 1 20.2734 1.91333 
405 1 21.1757 2.47143 
751 2 22.9344 1.60782 
584 1 22.2664 2.18247 
463 1 23.821 1.56636 
843 2 23.4625 2.39595 
196 1 24.4207 2.38026 
825 2 24.7327 1.32554 
630 1 25.3433 1.93715 
857 2 25.1032 2.8003 
101 1 26.3966 1.57788 
918 2 26.0896 2.36536 
193 1 26.9243 2.76957 
929 2 -1.48328 1.96298 
459 1 -0.598168 1.714 
391 1 28.0387 2.79138 
35 1 0.186501 2.93991 
238 1 0.234575 3.93526 
227 1 1.27604 3.65842 
226 1 2.106 3.00639 
668 2 2.06357 3.88941 
328 1 2.91421 3.74163 
774 2 3.63943 4.09687 
23 1 4.06482 3.39673 
257 1 5.56996 3.24041 
663 2 4.83939 3.73949 
117 1 6.76803 3.31434 
837 2 6.18674 3.91221 
510 1 7.76631 3.63393 
430 1 8.84261 3.98254 
324 1 9.6369 3.20401 
520 1 9.78593 4.31153 
910 2 10.4024 3.66919 
181 1 11.1682 3.27296 
413 1 10.9568 4.36257 
80 1 12.1264 2.94022 
495 1 11.9216 4.03556 
41 1 12.9883 3.83663 
687 2 13.7514 3.28303 
369 1 14.1751 3.99232 
300 1 14.9125 3.2241 
979 2 15.7036 3.63723 
292 1 15.1393 4.27883 
191 1 16.5627 3.5632 
208 1 17.7122 3.47435 
497 1 18.4256 4.2984 
43 1 20.1568 2.87718 
216 1 18.9416 3.46288 
897 2 19.7561 3.59703 
547 1 20.66 4.04414 
846 2 20.9835 3.28638 
664 2 21.5355 3.94272 
341 1 21.8454 3.15199 
134 1 22.9478 3.0748 
646 1 22.3861 4.01699 
874 2 23.2218 3.88296 
350 1 23.9474 3.31369 
398 1 24.9521 3.72319 
247 1 25.9331 4.24197 
224 1 25.8805 3.19649 
795 2 26.6747 3.61475 
380 1 27.5464 3.67576 
756 2 28.3858 3.54096 
951 2 0.964248 4.442 
493 1 29.7739 5.38175 
891 2 28.9973 4.86432 
221 1 1.79691 4.78599 
108 1 2.58021 5.56034 
864 2 2.65671 4.65265 
776 2 1.71967 5.70201 
52 1 3.42391 4.91733 
447 1 4.23114 5.49928 
155 1 4.38166 4.46609 
923 2 4.97283 5.12434 
258 1 5.41535 4.39608 
863 2 6.0341 5.00347 
427 1 6.75899 4.57499 
376 1 6.66006 5.64337 
524 1 7.9981 4.59934 
876 2 7.5062 5.26792 
643 1 8.43926 5.5165 
786 2 8.93086 4.81974 
163 1 9.55544 5.35887 
693 2 10.3972 4.97052 
89 1 10.6033 5.88537 
164 1 11.47 5.25203 
199 1 12.4454 4.90145 
110 1 12.3799 5.94615 
388 1 13.6061 4.87584 
195 1 14.3971 5.68806 
944 2 14.528 4.86841 
345 1 15.3151 5.35811 
791 2 16.2136 5.43073 
206 1 17.2508 4.39196 
225 1 16.0955 4.57484 
508 1 17.0621 5.42907 
832 2 17.7803 5.00975 
500 1 19.5161 4.43439 
762 2 18.8576 5.01347 
563 1 19.6312 5.43632 
348 1 20.602 5.10395 
192 1 21.7487 4.87416 
530 1 22.4209 5.78261 
573 1 24.0566 4.33867 
531 1 23.1064 4.81462 
505 1 24.1127 5.34904 
588 1 24.9933 4.79916 
836 2 26.1826 5.05148 
140 1 26.8967 4.53528 
240 1 28.172 4.40411 
428 1 27.7116 5.29782 
149 1 28.7151 5.64357 
982 2 0.631019 6.10065 
377 1 1.28211 6.60147 
865 2 0.484878 7.12547 
688 2 2.1469 6.46243 
949 2 3.46042 5.849 
178 1 3.01998 6.68507 
26 1 4.03118 6.52021 
704 2 4.81662 6.14924 
339 1 4.95269 7.03345 
423 1 5.60593 5.79944 
469 1 6.01682 6.73359 
869 2 6.87162 6.53722 
157 1 7.41892 7.15808 
590 1 7.61186 6.17475 
978 2 8.21831 6.82294 
96 1 8.98229 6.4599 
866 2 9.74822 6.21084 
998 2 9.54374 7.16332 
553 1 10.3982 6.83387 
916 2 11.1723 7.17724 
752 2 11.3972 6.27995 
798 2 12.8294 6.65746 
304 1 11.988 6.94001 
104 1 13.392 5.97568 
331 1 14.2818 6.71198 
894 2 13.5419 7.16139 
878 2 15.0632 6.23897 
40 1 15.2188 7.1291 
29 1 15.8995 6.21328 
652 2 16.0793 7.02666 
231 1 16.9084 6.43134 
48 1 18.5022 5.81275 
784 2 17.6759 6.16025 
972 2 18.6243 6.61176 
139 1 17.8676 6.98751 
809 2 19.4137 6.2486 
834 2 20.1208 7.02011 
320 1 21.3183 5.84243 
382 1 20.3033 6.25391 
672 2 21.0313 6.64378 
578 1 21.8558 6.90797 
603 1 22.9613 6.60592 
778 2 23.2756 5.7519 
354 1 24.0119 6.39829 
205 1 25.5621 5.6165 