ITEM: TIMESTEP
0
ITEM: NUMBER OF ATOMS
1000
ITEM: BOX BOUNDS pp pp pp
0.0000000000000000e+00 2.8867500000000000e+01
0.0000000000000000e+00 2.8867500000000000e+01
-1.0000000000000000e+00 1.0000000000000000e+00
ITEM: ATOMS id type x y 
386 1 1.36679 0.980018 
279 1 0.350761 0.916203 
277 1 0.922216 0.0413768 
644 1 2.20919 0.416448 
442 1 2.36996 1.43537 
779 2 2.93128 0.854994 
504 1 4.11223 0.533289 
601 1 3.17111 0.03782 
777 2 5.16192 0.450797 
228 1 4.67997 1.39444 
408 1 5.73824 1.11657 
699 2 6.48557 0.662969 
210 1 7.00071 1.40522 
389 1 7.38031 0.437197 
759 2 8.08446 0.100988 
724 2 7.88071 1.17135 
182 1 8.65317 0.70185 
757 2 9.59724 0.289403 
511 1 9.56262 1.14466 
481 1 10.4448 0.690989 
470 1 11.3796 0.2421 
722 2 11.1817 1.23308 
513 1 12.0979 0.981829 
153 1 12.879 0.324081 
815 2 13.015 1.19486 
574 1 13.7731 0.865359 
145 1 14.7622 0.382289 
800 2 15.2454 1.04999 
97 1 15.767 0.380334 
309 1 17.0373 1.3303 
928 2 16.1902 1.12603 
914 2 16.7444 0.521703 
898 2 17.7109 0.827549 
156 1 18.5543 0.529134 
127 1 17.4275 0.050289 
74 1 19.2909 1.22737 
715 2 19.5595 0.396764 
239 1 20.2992 0.796105 
137 1 21.2111 0.320687 
47 1 21.2378 1.36103 
36 1 22.084 0.834268 
33 1 22.9598 0.309489 
751 2 22.8343 1.30168 
803 2 24.1435 0.495955 
463 1 23.6393 1.15947 
825 2 24.6079 1.25778 
443 1 25.1042 0.446369 
761 2 25.8723 0.822599 
315 1 26.6272 0.352256 
101 1 26.6092 1.37802 
154 1 27.5496 0.922373 
819 2 28.3641 0.797305 
261 1 28.7371 0.0210749 
214 1 0.685245 1.83261 
933 2 0.973859 2.68501 
35 1 0.0882839 2.70337 
54 1 1.61683 2.09098 
226 1 2.4117 2.75262 
623 1 3.60274 1.45935 
959 2 2.95361 2.09675 
523 1 4.23216 2.26374 
540 1 3.41932 2.85866 
56 1 5.44461 2.1125 
720 2 5.0382 2.82251 
806 2 6.23024 1.80304 
6 1 6.67877 2.57285 
306 1 7.62134 2.1395 
22 1 8.63941 1.70728 
572 1 8.51662 2.73913 
542 1 9.56604 2.24868 
312 1 10.5426 1.80367 
355 1 10.4181 2.88019 
827 2 11.2008 2.79165 
14 1 11.5551 2.01586 
128 1 12.5857 2.01252 
561 1 13.5655 1.89731 
16 1 14.3236 2.62079 
296 1 13.2152 2.86799 
106 1 14.515 1.60466 
501 1 15.5729 1.82951 
697 2 15.1741 2.64079 
821 2 16.4455 2.05047 
301 1 17.0182 2.74462 
13 1 18.2346 1.56819 
833 2 17.4779 2.04239 
219 1 18.1449 2.69174 
486 1 20.1936 1.87879 
353 1 19.0688 2.25923 
405 1 20.9835 2.40617 
584 1 22.168 1.94422 
843 2 23.3129 2.13954 
196 1 24.3484 2.09739 
630 1 25.3434 1.59005 
857 2 25.0908 2.46592 
224 1 25.8185 2.8826 
918 2 26.0444 2.079 
193 1 26.8737 2.52721 
459 1 28.4966 1.66515 
929 2 27.4713 1.80002 
391 1 27.8571 2.54195 
238 1 0.155455 3.72014 
951 2 0.907862 4.13086 
227 1 1.31549 3.4297 
668 2 2.14241 3.55669 
328 1 2.93694 3.83439 
774 2 3.79019 3.89827 
23 1 4.44979 3.35233 
257 1 5.74586 3.26969 
663 2 5.23857 3.88509 
155 1 4.5256 4.30173 
117 1 6.72776 3.63675 
837 2 6.16307 4.32778 
510 1 7.65078 3.1791 
430 1 8.49395 3.75432 
524 1 7.67094 4.27226 
324 1 9.46249 3.31827 
910 2 10.3494 3.73895 
181 1 11.2229 3.669 
80 1 12.1162 2.96802 
495 1 12.2269 4.01053 
687 2 13.9928 3.38807 
41 1 13.2419 3.94964 
369 1 14.2854 4.16702 
300 1 15.0059 3.46579 
979 2 15.7479 3.94189 
332 1 15.9579 2.95192 
191 1 16.6264 3.70652 
208 1 17.5719 3.59884 
43 1 19.9329 2.89183 
216 1 18.8038 3.60159 
897 2 19.6512 3.67859 
547 1 20.4754 4.02881 
341 1 21.6294 3.14643 
846 2 20.8085 3.27718 
664 2 21.3478 4.01227 
134 1 22.6668 2.91839 
646 1 22.1906 4.00433 
874 2 23.0704 3.72791 
350 1 23.8016 2.93237 
573 1 23.8944 3.93846 
398 1 24.8284 3.29164 
247 1 25.7964 3.91993 
795 2 26.5325 3.39338 
380 1 27.4025 3.44748 
140 1 26.7252 4.25483 
756 2 28.2802 3.26608 
240 1 28.0296 4.18453 
891 2 0.0378136 4.54195 
493 1 0.808157 4.98336 
982 2 0.329583 5.63008 
221 1 1.77775 4.41701 
776 2 1.64952 5.24206 
108 1 2.40613 5.53436 
864 2 2.64217 4.67498 
52 1 3.53467 4.70711 
447 1 4.0974 5.70459 
949 2 3.23573 5.60775 
923 2 4.79395 5.10335 
258 1 5.51162 4.72408 
423 1 5.34755 5.76706 
863 2 6.03279 5.38067 
427 1 6.7321 4.91686 
876 2 7.16672 5.67295 
643 1 7.94865 5.24053 
786 2 8.56388 4.5976 
520 1 9.43995 4.34347 
693 2 9.85976 5.14791 
163 1 9.11598 5.39169 
413 1 10.4324 4.54974 
89 1 10.6193 5.53412 
164 1 11.4267 4.78179 
199 1 12.4635 5.02225 
110 1 11.7597 5.76572 
388 1 13.5267 4.92135 
944 2 14.3007 5.11358 
292 1 15.1231 4.64357 
791 2 15.4627 5.36003 
206 1 17.2022 4.61569 
225 1 16.1933 4.79182 
508 1 17.0358 5.60913 
497 1 18.2934 4.5371 
832 2 17.8223 5.30598 
762 2 18.9158 5.1785 
500 1 19.4698 4.53027 
563 1 19.6199 5.67028 
348 1 20.4238 5.08052 
192 1 21.392 4.85481 
530 1 22.5233 5.46929 
531 1 23.125 4.55862 
778 2 23.3722 5.39928 
505 1 24.1195 4.95153 
714 2 24.6836 5.60427 
588 1 24.9199 4.38546 
205 1 25.4511 5.36672 
836 2 26.0616 4.7204 
509 1 26.5316 5.48774 
428 1 27.4769 5.01111 
149 1 28.4685 5.29767 
377 1 1.14591 6.02126 
858 2 1.19132 6.89688 
865 2 0.452137 6.4773 
688 2 1.97494 6.30574 
596 1 2.03091 7.1286 
178 1 2.91008 6.49238 
26 1 3.93543 6.67159 
704 2 4.74684 6.34732 
469 1 5.68427 6.76667 
376 1 6.4355 6.09849 
869 2 6.57435 6.89682 
590 1 7.34215 6.48867 
96 1 8.39055 6.23495 
978 2 7.99726 7.09855 
866 2 9.23455 6.35802 
553 1 10.0922 6.47093 
752 2 10.9865 6.36039 
798 2 12.5362 7.18556 
104 1 12.5783 6.34284 
304 1 11.6425 7.00826 
195 1 13.6133 5.97302 
878 2 14.2336 6.49087 
331 1 13.4223 6.96496 
345 1 14.77 5.79347 
40 1 14.9334 6.93142 
29 1 16.0361 5.97111 
652 2 15.9108 6.80766 
231 1 16.7114 6.69415 
784 2 17.5863 6.29437 
48 1 18.4386 5.9319 
972 2 18.3405 6.81575 
139 1 17.6217 7.18386 
809 2 19.1593 6.39989 
834 2 19.929 6.70614 
320 1 21.6244 5.85425 
382 1 20.5802 6.11453 
672 2 21.2749 6.60562 
115 1 20.6699 7.21477 
578 1 22.102 6.75305 
603 1 23.0428 6.3613 
354 1 24.0499 6.09165 
666 2 24.4113 6.95926 
302 1 25.031 6.36931 
82 1 25.7656 7.13516 
946 2 25.869 6.12306 
612 1 26.5832 6.48385 
740 2 27.3597 6.92205 
950 2 28.4302 6.17393 
554 1 27.596 6.04401 
190 1 28.2031 6.9988 
1 1 1.21936 7.77604 
515 1 0.347676 7.31916 
317 1 0.315037 8.36563 
727 2 1.19894 8.60395 
841 2 2.03896 7.98899 
685 2 2.81432 7.44716 
168 1 2.74685 8.34923 
305 1 3.62534 7.6713 
871 2 3.64075 8.50192 
339 1 4.78818 7.2295 
971 2 5.44922 7.95206 
409 1 4.52655 8.20213 
457 1 6.24187 7.65754 
157 1 7.23329 7.50606 
702 2 8.10627 8.01933 
527 1 7.4668 8.48771 
998 2 9.67115 7.25266 
456 1 8.81604 7.29236 
696 2 9.18924 8.12838 
711 2 10.0931 8.01891 
916 2 10.7078 7.23721 
492 1 10.9913 7.98382 
461 1 12.5413 8.04899 
991 2 11.7484 8.3916 
894 2 13.3602 7.84794 
706 2 14.178 7.37168 
541 1 14.3291 8.23716 
907 2 15.1531 7.77289 
167 1 15.3879 8.62067 
653 2 16.8597 7.60395 
488 1 15.9598 7.71035 
657 2 16.5511 8.46658 
956 2 18.3217 7.73599 
1000 2 17.4884 8.16496 
91 1 18.2468 8.59326 
364 1 19.0742 7.27358 
671 2 19.0333 8.21991 
730 2 19.8881 7.60315 
94 1 20.4395 8.1992 
188 1 21.6039 7.83292 
831 2 21.1481 8.6552 
404 1 22.6333 7.54517 
820 2 22.4337 8.3407 
284 1 23.5789 7.27633 
691 2 23.2276 8.0467 
537 1 24.0137 8.33681 
638 1 24.836 7.64938 
319 1 25.8997 8.15183 
51 1 26.7527 7.57423 
334 1 26.8568 8.59924 
829 2 27.5804 7.83341 
996 2 28.5063 7.80795 
557 1 28.1079 8.55378 
888 2 0.824907 9.39348 
410 1 0.209593 9.97 
570 1 1.69084 9.29198 
856 2 2.50962 9.13963 
593 1 2.44898 10.0068 
200 1 3.33919 9.40847 
713 2 3.98209 9.94841 
477 1 4.32298 9.14948 
85 1 4.93709 9.88774 
529 1 5.36124 8.86336 
478 1 6.44398 8.7109 
327 1 5.91816 9.71461 
267 1 7.02789 9.62979 
877 2 7.87402 9.40135 
349 1 8.47667 8.85941 
805 2 9.36136 8.9639 
151 1 8.997 9.76286 
851 2 9.93764 9.71315 
336 1 10.178 8.86765 
945 2 11.0049 8.83968 
378 1 10.9327 9.66651 
860 2 12.6082 8.88134 
144 1 11.8844 9.27817 
222 1 12.8591 9.74288 
50 1 13.4205 8.7089 
908 2 13.7495 9.47917 
384 1 14.5764 9.34085 
656 2 15.4414 9.64228 
474 1 16.2051 9.24316 
771 2 16.6819 9.94465 
326 1 17.1822 9.10638 
790 2 17.9763 9.43508 
974 2 18.7831 9.99233 
742 2 19.8014 8.70723 
962 2 18.8941 9.14326 
919 2 19.6845 9.66602 
421 1 20.4971 9.37657 
814 2 21.3361 9.66769 
270 1 21.9479 9.03959 
662 2 22.6024 9.56999 
76 1 23.0578 8.88335 
939 2 24.2371 9.13184 
659 2 23.5156 9.63594 
212 1 24.3505 10.0152 
600 1 24.9822 8.69932 
736 2 25.0641 9.53485 
482 1 25.9269 9.20602 
399 1 26.884 9.74889 
859 2 28.7509 9.16055 
782 2 27.5125 9.14386 
595 1 27.9928 9.80086 
441 1 1.2749 10.2428 
68 1 0.399107 11.0207 
467 1 1.36981 11.2835 
625 1 2.44972 10.9636 
472 1 3.42244 10.5982 
484 1 4.41887 10.8886 
146 1 5.45995 10.7872 
5 1 6.48865 10.6684 
970 2 8.24782 10.2215 
619 1 7.56185 10.6661 
758 2 8.07712 11.3386 
632 1 8.7448 10.86 
362 1 9.73801 10.509 
921 2 9.59914 11.3733 
842 2 10.548 10.5238 
538 1 11.3184 10.6747 
402 1 10.4327 11.3167 
765 2 11.2746 11.5213 
673 2 12.0901 10.2049 
340 1 12.2965 11.0484 
303 1 13.8303 10.286 
767 2 13.0115 10.6032 
883 2 14.3262 11.0313 
60 1 13.5467 11.2985 
560 1 14.8866 10.3474 
684 2 15.4399 11.0968 
133 1 15.9177 10.3437 
431 1 16.2169 11.3414 
532 1 17.0825 10.7201 
476 1 17.9994 10.2907 
83 1 17.9547 11.372 
824 2 18.6869 10.8889 
243 1 19.4782 10.5164 
823 2 19.9123 11.228 
739 2 20.3735 10.3868 
466 1 20.7617 11.1999 
760 2 21.3303 10.5586 
849 2 22.2041 10.4161 
365 1 21.8379 11.2946 
754 2 22.6965 11.13 
567 1 23.0604 10.3671 
682 2 23.8435 10.641 
172 1 23.4673 11.4836 
599 1 24.5412 11.2054 
890 2 25.0882 10.3935 
45 1 25.6059 11.0195 
942 2 26.0456 10.11 
120 1 26.5919 10.8387 
875 2 27.4662 10.4568 
835 2 28.432 10.4897 
491 1 27.8205 11.1991 
881 2 0.686012 11.8136 
396 1 1.31737 12.3644 
587 1 0.121115 12.45 
654 2 2.12503 11.7618 
119 1 2.42828 12.5271 
418 1 4.11653 11.8221 
162 1 3.11579 11.739 
480 1 3.50011 12.7232 
220 1 5.1477 11.8312 
698 2 4.37509 12.6803 
737 2 5.71276 12.4143 
394 1 6.19563 11.7231 
975 2 6.76167 12.3864 
534 1 7.22562 11.6002 
30 1 7.89896 12.34 
387 1 8.87436 12.8386 
462 1 8.84527 11.8165 
253 1 9.80531 12.3633 
439 1 10.8686 12.3006 
985 2 11.411 12.9538 
559 1 11.8712 12.0535 
708 2 12.6652 11.7825 
293 1 12.3455 12.9027 
297 1 13.2477 12.4054 
992 2 14.0088 12.0478 
249 1 14.1872 12.907 
393 1 14.8535 11.7498 
785 2 14.991 12.5584 
318 1 15.7502 12.1987 
948 2 17.0897 11.5608 
437 1 16.7358 12.2941 
546 1 17.8 12.3695 
855 2 18.6363 12.3243 
624 1 19.1258 11.6676 
123 1 19.3631 12.7923 
873 2 20.1662 12.9814 
615 1 20.1443 12.0585 
813 2 21.2063 11.9376 
15 1 21.0282 12.8254 
792 2 22.8571 12.0197 
597 1 22.0288 12.3064 
952 2 22.651 12.8901 
799 2 24.1522 11.9652 
610 1 23.5254 12.552 
551 1 24.6104 12.6771 
717 2 25.0729 11.9047 
73 1 25.6975 12.5745 
845 2 26.0677 11.7983 
506 1 26.9632 11.7291 
995 2 26.5507 12.5104 
291 1 27.9218 12.2073 
679 2 28.63 11.7017 
130 1 0.868781 13.2773 
234 1 0.68096 14.3432 
651 2 1.7353 13.1111 
31 1 1.72332 14.0792 
311 1 2.61491 13.6476 
789 2 3.39601 13.6343 
158 1 4.23672 13.5487 
372 1 5.15411 13.0876 
645 1 5.57552 14.0418 
361 1 6.23703 13.0957 
818 2 6.72508 13.7895 
84 1 7.2512 13.1415 
828 2 8.13376 13.3971 
438 1 7.56417 14.1125 
419 1 8.80404 13.8856 
676 2 9.54683 13.3666 
607 1 9.89318 14.1954 
611 1 10.4822 13.2865 
114 1 11.5115 13.8099 
880 2 10.7187 14.0943 
900 2 12.3849 13.8503 
383 1 13.1851 13.4851 
11 1 14.143 14.1951 
807 2 13.2957 14.2669 
371 1 15.091 13.4461 
381 1 15.8069 14.3015 
637 1 16.1104 13.2678 
934 2 16.6554 13.9109 
189 1 17.2249 13.2616 
580 1 18.3825 13.1714 
725 2 17.9033 13.8735 
316 1 18.6238 14.328 
994 2 19.1239 13.7069 
211 1 19.9868 13.7937 
198 1 20.972 14.0121 
487 1 21.9317 13.3806 
940 2 22.4882 13.9592 
840 2 23.9459 13.2237 
395 1 23.2204 13.585 
732 2 23.7978 14.1559 
78 1 24.6098 13.7861 
909 2 25.2234 13.2794 
275 1 25.6522 14.0462 
896 2 26.1509 13.2894 
518 1 27.2115 13.0114 
57 1 26.7239 13.921 
152 1 28.7595 13.6283 
690 2 28.0788 13.1621 
633 1 27.7921 14.0057 
628 1 0.0451253 15.2365 
674 2 0.958508 15.2655 
585 1 1.88424 15.1495 
853 2 2.54593 14.575 
507 1 3.41222 14.4519 
49 1 2.97292 15.4046 
781 2 3.85577 15.1554 
165 1 4.5867 14.4817 
351 1 5.61126 15.1707 
294 1 4.61514 15.5396 
591 1 6.45803 14.6072 
741 2 6.44113 15.4488 
379 1 7.3178 15.1784 
558 1 8.33149 14.8535 
183 1 8.10387 15.8639 
248 1 9.11946 15.5442 
955 2 9.1701 14.6405 
766 2 9.92365 15.1336 
65 1 10.7926 15.063 
169 1 12.474 14.687 
989 2 11.6279 14.6109 
390 1 11.7752 15.5101 
744 2 12.666 15.4719 
18 1 13.4171 15.0765 
658 2 14.3351 15.1348 
838 2 14.9044 14.5086 
446 1 15.2705 15.3331 
726 2 16.4419 14.8182 
124 1 16.2647 15.6349 
958 2 17.1238 15.5069 
122 1 17.3513 14.5714 
887 2 18.1954 15.0198 
72 1 17.9104 15.8087 
852 2 19.4342 14.5915 
450 1 19.0739 15.347 
854 2 19.8539 15.6464 
606 1 20.2049 14.9007 
867 2 21.1231 14.9899 
494 1 21.7089 15.6285 
373 1 21.8931 14.6138 
954 2 22.4726 15.2735 
28 1 23.0652 14.5843 
969 2 23.3463 15.5786 
522 1 23.9832 14.9541 
981 2 24.9983 14.7871 
460 1 24.6672 15.7221 
111 1 25.6667 15.3504 
701 2 26.2169 14.6342 
268 1 27.0052 14.9719 
810 2 27.3781 15.8023 
879 2 28.5799 14.5035 
568 1 27.9467 15.0531 
635 1 0.566053 16.0934 
126 1 0.413906 17.213 
705 2 1.53381 15.9438 
129 1 2.35409 16.1818 
273 1 1.47958 16.7641 
213 1 2.39999 17.2919 
967 2 3.06584 16.6258 
260 1 3.81218 16.0702 
187 1 3.75178 17.1183 
385 1 4.73603 16.6246 
976 2 5.51158 16.9981 
3 1 5.82037 16.2154 
159 1 7.11594 16.2889 
112 1 6.38354 17.0609 
850 2 7.83239 16.6807 
539 1 8.64202 16.7899 
893 2 9.46462 16.3014 
464 1 9.80051 17.0998 
731 2 11.0901 16.0045 
412 1 10.2502 15.9661 
186 1 10.8721 16.8122 
90 1 11.9179 16.5139 
816 2 12.7341 16.3561 
436 1 12.6301 17.2238 
920 2 13.4846 15.8893 
241 1 13.5301 16.7321 
38 1 14.3545 16.0196 
917 2 14.578 16.8672 
77 1 15.3513 16.3953 
738 2 16.1898 16.4561 
70 1 17.0276 16.3956 
299 1 16.2164 17.3055 
694 2 17.8865 16.6647 
102 1 18.7164 16.9856 
862 2 18.7272 16.1067 
37 1 19.6408 16.437 
490 1 20.634 15.9036 
329 1 20.5855 16.9445 
150 1 21.5799 16.666 
571 1 22.6688 16.1721 
649 1 23.7868 16.2972 
905 2 24.6194 16.5269 
648 1 25.5589 16.4857 
984 2 26.4244 16.9114 
175 1 26.449 16.0763 
514 1 27.3317 16.8466 
283 1 28.2625 17.2089 
448 1 28.1283 16.1242 
936 2 0.707074 17.9789 
63 1 1.55317 17.8597 
886 2 2.40451 18.3296 
46 1 3.28997 18.0983 
912 2 4.09041 18.1644 
295 1 4.72164 17.5936 
244 1 4.82089 18.7238 
322 1 5.61477 17.8064 
21 1 6.65444 18.0426 
184 1 7.42981 17.4021 
556 1 7.63111 18.3814 
92 1 8.54428 17.7764 
170 1 9.55024 18.0934 
440 1 10.6481 17.8519 
454 1 11.6846 17.53 
453 1 12.6132 18.2033 
367 1 11.6032 18.5691 
977 2 13.3347 17.7518 
433 1 13.7755 18.6051 
179 1 14.1518 17.606 
346 1 15.1897 17.5303 
185 1 14.7662 18.469 
444 1 15.8671 18.3696 
746 2 17.1371 17.3328 
483 1 16.9129 18.1445 
631 1 17.935 17.6979 
750 2 17.6588 18.5586 
266 1 18.5479 18.5896 
931 2 18.8543 17.8402 
148 1 19.6463 17.4851 
535 1 19.5595 18.5431 
2 1 20.4661 18.1065 
141 1 21.4252 17.688 
233 1 21.1899 18.7576 
171 1 22.519 17.3592 
406 1 22.1984 18.3435 
716 2 23.0375 18.0295 
420 1 23.5902 17.4088 
594 1 23.5441 18.6415 
986 2 24.1525 18.0544 
548 1 24.6691 17.3724 
695 2 25.1278 18.1558 
499 1 25.7281 17.4998 
207 1 26.7686 17.7378 
794 2 26.1336 18.2463 
872 2 26.9586 18.5711 
215 1 28.7034 18.1508 
964 2 27.711 17.8516 
403 1 27.8397 18.7596 
132 1 0.68807 18.8113 
700 2 1.15808 19.6721 
86 1 0.311374 19.8235 
87 1 1.73965 18.924 
749 2 2.10662 19.7338 
555 1 2.72359 19.0829 
817 2 3.45976 19.8118 
136 1 3.7537 19.0178 
904 2 5.32786 19.6736 
201 1 4.51517 19.7839 
7 1 5.8277 18.8885 
121 1 6.8922 19.0798 
579 1 6.19523 19.8446 
400 1 8.01868 19.3211 
626 1 7.23757 20.0861 
735 2 9.77203 18.9056 
434 1 8.92905 18.9049 
407 1 9.67982 19.7371 
533 1 8.69521 20.0334 
142 1 10.6758 19.058 
796 2 10.5887 19.906 
743 2 11.5454 19.5125 
675 2 12.9809 18.9675 
32 1 12.3882 19.5689 
246 1 13.4955 19.5891 
229 1 14.6132 19.5765 
655 2 15.3886 19.0862 
922 2 15.3734 19.9809 
4 1 16.113 19.618 
999 2 16.5595 18.8994 
321 1 17.2468 19.3482 
930 2 18.249 19.3624 
61 1 19.1475 19.5822 
581 1 20.2744 19.3481 
801 2 21.2239 19.6838 
298 1 22.0573 19.4146 
745 2 22.7931 19.071 
174 1 23.477 19.6374 
753 2 24.4436 19.6873 
269 1 24.5669 18.8191 
902 2 25.4707 18.9271 
517 1 25.3492 19.7329 
990 2 26.3036 19.245 
64 1 27.1156 19.52 
289 1 26.3361 20.1375 
770 2 28.7348 19.0698 
9 1 28.0967 19.6876 
67 1 0.552727 20.8298 
953 2 1.28197 21.2386 
209 1 1.61785 20.4276 
203 1 2.15186 21.275 
569 1 2.72323 20.3827 
780 2 3.0734 21.1975 
271 1 3.73175 20.647 
575 1 3.96328 21.6473 
230 1 5.42971 20.5281 
960 2 4.58939 20.7356 
335 1 4.99727 21.4789 
783 2 6.42694 20.6692 
58 1 6.02532 21.4083 
475 1 7.03801 21.2043 
75 1 8.03398 20.8459 
870 2 8.57102 21.4602 
344 1 9.17712 20.9067 
173 1 10.1822 20.6724 
217 1 11.2374 20.5629 
733 2 11.3197 21.5217 
95 1 12.178 21.283 
963 2 12.0925 20.4025 
665 2 13.1023 21.4186 
502 1 13.0636 20.5052 
830 2 14.0586 20.237 
314 1 13.8941 21.1247 
468 1 14.8157 20.5965 
24 1 15.8696 20.6758 
997 2 15.7649 21.613 
426 1 16.8478 20.3328 
325 1 16.6301 21.3315 
598 1 17.8819 20.211 
913 2 17.4735 20.9284 
116 1 18.5386 21.1776 
689 2 18.7185 20.3734 
617 1 19.5714 20.6171 
822 2 19.3437 21.4935 
342 1 20.6234 20.353 
88 1 20.2574 21.3998 
926 2 21.0863 21.2082 
135 1 21.6364 20.4577 
755 2 22.5282 20.2652 
34 1 22.4093 21.076 
723 2 23.2566 21.5775 
479 1 23.3414 20.6746 
204 1 24.066 21.3704 
452 1 24.5724 20.4844 
710 2 25.5392 20.5711 
223 1 25.0926 21.5466 
12 1 26.0604 21.2221 
677 2 26.9773 21.1808 
592 1 27.3614 20.4594 
458 1 28.4075 20.7235 
425 1 27.7395 21.5592 
55 1 0.944755 22.0314 
422 1 1.05219 23.0466 
577 1 0.0852632 22.7265 
566 1 1.93802 22.3888 
131 1 2.92862 22.0587 
262 1 3.72651 22.7493 
647 1 4.69074 22.4642 
250 1 5.75289 22.3576 
980 2 6.37128 22.9238 
308 1 6.84041 22.1935 
924 2 7.6194 21.8037 
545 1 8.31275 22.2862 
769 2 7.52948 22.7281 
634 1 9.39296 21.9678 
932 2 9.06815 22.7167 
202 1 10.3394 21.6518 
642 1 10.1064 22.6377 
237 1 11.162 22.3351 
734 2 11.9723 22.1049 
255 1 12.7842 22.2464 
586 1 12.0421 23.0044 
549 1 13.804 22.1233 
485 1 14.6169 22.7536 
451 1 14.9012 21.6842 
286 1 15.6791 22.4414 
627 1 16.7138 22.513 
310 1 17.6333 21.7793 
368 1 18.5679 22.2022 
608 1 17.7221 22.7986 
25 1 19.6497 22.2366 
892 2 19.1992 22.9745 
8 1 20.8224 22.2707 
166 1 21.6831 21.8132 
622 1 21.7595 22.8508 
613 1 22.6741 22.1597 
764 2 22.6122 23.0006 
370 1 23.673 22.3584 
100 1 24.4413 23.0511 
935 2 24.5194 22.179 
424 1 25.3334 22.6172 
988 2 26.0013 22.0522 
589 1 26.875 22.0222 
66 1 26.3506 22.8951 
703 2 27.1894 22.9732 
259 1 28.7879 21.7593 
290 1 27.9406 22.5956 
811 2 0.38846 23.6301 
236 1 1.21373 24.079 
411 1 0.23907 24.4675 
366 1 2.63789 23.1155 
718 2 1.77861 23.4679 
498 1 2.42878 24.1011 
254 1 3.50507 23.7884 
536 1 4.46072 23.4747 
812 2 5.33144 23.1042 
839 2 5.13252 24.0293 
313 1 5.98663 23.671 
81 1 7.0099 23.4505 
503 1 7.01875 24.5199 
847 2 7.67702 23.9725 
263 1 8.18605 23.3354 
709 2 8.74888 24.1063 
360 1 9.2695 23.5208 
748 2 11.0646 23.2019 
44 1 10.3095 23.6536 
445 1 11.3427 24.031 
797 2 10.5464 24.4916 
281 1 12.7587 23.8371 
27 1 13.4982 23.1183 
987 2 13.6001 24.0274 
338 1 14.3847 23.7959 
99 1 15.376 23.412 
618 1 15.2136 24.4738 
660 2 16.2444 23.1854 
528 1 17.019 23.5325 
680 2 16.8961 24.4305 
650 1 16.1635 24.0749 
552 1 18.4922 23.4937 
330 1 17.7397 24.2727 
416 1 20.1207 23.1336 
641 1 19.4152 23.8909 
903 2 20.9776 23.1099 
414 1 20.4249 24.098 
272 1 21.5131 23.8817 
582 1 22.6135 23.9145 
465 1 23.5255 23.4846 
775 2 23.34 24.3508 
957 2 24.2683 23.8897 
280 1 25.1383 23.7949 
793 2 25.9392 23.597 
640 1 26.0294 24.5337 
160 1 26.7948 23.8554 
968 2 27.6515 23.9265 
605 1 28.4011 23.6206 
802 2 0.968611 24.9477 
53 1 0.526001 25.7108 
562 1 1.55559 25.5451 
884 2 1.8176 24.7045 
274 1 2.5855 25.2202 
670 2 3.24016 24.6193 
512 1 3.59391 25.3852 
519 1 4.22765 24.5942 
768 2 5.01899 25.0456 
576 1 5.69824 25.6763 
71 1 4.57306 25.839 
358 1 5.93094 24.6753 
961 2 6.56257 25.2695 
449 1 7.28808 25.6607 
347 1 8.08028 24.6966 
496 1 8.30764 25.8304 
721 2 8.90363 25.0627 
363 1 9.61385 24.557 
550 1 9.34457 25.886 
525 1 10.2409 25.3876 
39 1 11.2109 25.0256 
276 1 12.1454 24.6336 
614 1 11.9966 25.7376 
773 2 12.7788 25.4716 
602 1 14.3147 24.898 
435 1 13.2352 24.7554 
848 2 13.6933 25.5206 
787 2 15.0373 25.3816 
471 1 15.9431 25.2068 
489 1 17.0447 25.2605 
429 1 18.7015 24.5622 
282 1 18.0596 25.3588 
609 1 19.6937 24.896 
669 2 18.9154 25.4182 
98 1 19.7454 25.9532 
93 1 21.0924 24.8264 
728 2 20.4179 25.4023 
620 1 21.0197 25.9597 
788 2 21.9287 24.5801 
180 1 21.9111 25.4989 
10 1 22.7384 24.9427 
729 2 22.8171 25.7903 
937 2 23.534 25.2167 
242 1 24.2571 24.7341 
899 2 24.699 25.5513 
925 2 25.1156 24.6459 
417 1 25.536 25.5026 
941 2 26.3867 25.3039 
103 1 27.07 24.8239 
712 2 27.2277 25.6651 
252 1 28.0779 24.6769 
692 2 28.7906 25.1995 
565 1 28.0937 25.6886 
42 1 1.18967 26.5987 
521 1 0.358263 27.2331 
661 2 0.120232 26.4322 
629 1 2.22906 26.3871 
868 2 1.86677 27.2779 
352 1 2.97506 27.2338 
719 2 3.09991 26.2123 
59 1 3.87765 26.5973 
17 1 4.83492 27.05 
927 2 5.29919 26.384 
176 1 6.0224 26.8197 
681 2 6.4528 26.1064 
251 1 7.03743 26.7117 
772 2 7.87343 26.5454 
636 1 8.36131 27.2702 
895 2 7.53881 27.3997 
763 2 8.77924 26.5154 
374 1 9.5868 26.9003 
808 2 10.1515 26.2462 
616 1 10.9675 26.0158 
473 1 10.7407 27.0197 
401 1 11.7357 26.7238 
826 2 12.501 26.4207 
105 1 13.3046 26.3688 
901 2 14.0721 26.8215 
161 1 14.3783 25.9872 
20 1 15.4651 26.0787 
583 1 14.864 27.0053 
686 2 15.7285 26.9624 
118 1 16.5254 26.257 
218 1 16.5602 27.335 
197 1 17.6419 26.2375 
683 2 17.3322 27.0082 
245 1 18.1823 27.104 
356 1 18.6576 26.25 
147 1 19.49 26.9321 
678 2 20.3465 26.6451 
337 1 21.1539 26.9904 
455 1 22.0293 26.5103 
415 1 23.0417 26.6035 
938 2 23.7878 26.0966 
844 2 23.9098 26.9492 
543 1 24.622 26.4448 
707 2 25.0753 27.166 
947 2 25.5002 26.3057 
138 1 25.9544 27.0859 
285 1 26.3611 26.1099 
125 1 27.2423 26.5624 
943 2 26.7174 27.2721 
62 1 28.2102 26.8401 
69 1 1.2513 27.8975 
911 2 0.433019 28.1029 
747 2 1.70285 28.6073 
343 1 2.34739 28.0498 
993 2 3.17803 28.051 
885 2 3.9241 28.4535 
256 1 3.95732 27.6055 
107 1 4.74541 28.5542 
177 1 5.63598 27.7554 
564 1 5.97205 28.7982 
906 2 6.89766 28.5894 
604 1 6.65298 27.7613 
526 1 7.69602 28.2146 
278 1 8.74223 28.5183 
983 2 9.17547 27.684 
264 1 9.76759 28.2858 
882 2 10.5474 28.7618 
667 2 10.1356 27.5732 
79 1 11.0032 28.0536 
143 1 12.5679 27.4352 
861 2 11.6624 27.5998 
307 1 12.1211 28.4339 
966 2 12.9526 28.2135 
359 1 13.5913 27.5958 
288 1 13.8502 28.6213 
639 1 14.5646 27.9987 
516 1 15.707 27.8381 
889 2 15.1901 28.5582 
621 1 16.5419 28.3868 
235 1 17.4598 27.8599 
333 1 18.3892 28.3966 
973 2 18.8602 27.6658 
109 1 19.3978 28.3593 
113 1 20.295 27.5886 
232 1 20.3572 28.6422 
397 1 21.2608 28.0075 
392 1 22.2563 27.4528 
965 2 22.8521 28.3676 
357 1 22.0491 28.6426 
323 1 23.8242 28.5769 
375 1 23.2715 27.605 
432 1 24.3786 27.7166 
915 2 25.7942 28.7351 
804 2 24.7421 28.5207 
19 1 25.4067 27.9678 
194 1 26.4615 28.1211 
544 1 27.4415 27.6653 
265 1 27.6939 28.7566 
287 1 28.4324 27.9382 
ITEM: TIMESTEP
10
ITEM: NUMBER OF ATOMS
1000
ITEM: BOX BOUNDS pp pp pp
0.0000000000000000e+00 2.8867500000000000e+01
0.0000000000000000e+00 2.8867500000000000e+01
-1.0000000000000000e+00 1.0000000000000000e+00
ITEM: ATOMS id type x y 
386 1 1.36452 0.975157 
279 1 0.342118 0.906864 
277 1 0.917005 0.0397227 
644 1 2.20811 0.410972 
442 1 2.36636 1.42383 
779 2 2.92788 0.855504 
504 1 4.11231 0.525648 
601 1 3.16314 0.0287436 
777 2 5.16264 0.461412 
228 1 4.6678 1.39907 
408 1 5.74961 1.11648 
699 2 6.48444 0.656298 
210 1 6.99946 1.40538 
389 1 7.38483 0.439246 
759 2 8.09014 0.0910796 
724 2 7.88275 1.17489 
182 1 8.65261 0.713781 
757 2 9.59617 0.287094 
511 1 9.54987 1.14084 
481 1 10.439 0.692043 
470 1 11.3751 0.240367 
722 2 11.1954 1.23513 
513 1 12.1025 0.991942 
153 1 12.8727 0.318753 
815 2 13.0125 1.20475 
574 1 13.7733 0.879526 
145 1 14.7557 0.382504 
800 2 15.2415 1.04741 
97 1 15.7664 0.370772 
309 1 17.0293 1.32451 
928 2 16.1865 1.12223 
914 2 16.7498 0.520395 
898 2 17.7267 0.82142 
156 1 18.5647 0.529576 
127 1 17.4305 0.0372842 
74 1 19.2913 1.21692 
715 2 19.5658 0.390558 
239 1 20.3032 0.79861 
137 1 21.1984 0.332841 
47 1 21.2443 1.36036 
36 1 22.0883 0.840866 
33 1 22.9592 0.299964 
751 2 22.8324 1.31128 
803 2 24.1462 0.489323 
463 1 23.6363 1.16532 
825 2 24.6072 1.26132 
443 1 25.1078 0.452626 
761 2 25.8636 0.822122 
315 1 26.6198 0.348057 
101 1 26.607 1.36639 
154 1 27.5613 0.917945 
819 2 28.3657 0.786116 
261 1 28.7282 0.0234086 
214 1 0.686665 1.84256 
933 2 0.965411 2.69189 
35 1 0.076879 2.69904 
54 1 1.61489 2.084 
226 1 2.41671 2.75743 
623 1 3.60443 1.45054 
959 2 2.94906 2.09869 
523 1 4.23017 2.26529 
540 1 3.4221 2.85468 
56 1 5.43827 2.1113 
720 2 5.03697 2.82645 
806 2 6.22823 1.80919 
6 1 6.68143 2.57025 
306 1 7.6307 2.14604 
22 1 8.64058 1.70641 
572 1 8.52734 2.73406 
542 1 9.55689 2.24924 
312 1 10.5308 1.79474 
355 1 10.4092 2.87107 
827 2 11.1871 2.7943 
14 1 11.544 2.01867 
128 1 12.5882 2.0126 
561 1 13.5701 1.89912 
16 1 14.3238 2.63484 
296 1 13.2056 2.87139 
106 1 14.5244 1.59842 
501 1 15.5751 1.82583 
697 2 15.1712 2.65956 
821 2 16.4497 2.05507 
301 1 17.0173 2.73911 
13 1 18.2308 1.57081 
833 2 17.4758 2.04132 
219 1 18.1397 2.69339 
486 1 20.1957 1.87563 
353 1 19.0622 2.26944 
405 1 20.9797 2.4031 
584 1 22.1792 1.94481 
843 2 23.3204 2.12707 
196 1 24.3454 2.09617 
630 1 25.3576 1.594 
857 2 25.0891 2.45768 
224 1 25.8109 2.87952 
918 2 26.0345 2.07941 
193 1 26.8713 2.53283 
459 1 28.505 1.67299 
929 2 27.4734 1.80154 
391 1 27.8524 2.53945 
238 1 0.149889 3.7198 
951 2 0.906541 4.14282 
227 1 1.32418 3.41887 
668 2 2.14475 3.54423 
328 1 2.94161 3.82303 
774 2 3.79087 3.89458 
23 1 4.44614 3.34951 
257 1 5.75924 3.26892 
663 2 5.24267 3.89226 
155 1 4.51831 4.3037 
117 1 6.73247 3.64749 
837 2 6.15724 4.328 
510 1 7.64073 3.19658 
430 1 8.49086 3.7539 
524 1 7.68022 4.27419 
324 1 9.47081 3.3088 
910 2 10.3293 3.7357 
181 1 11.2151 3.67561 
80 1 12.111 2.9701 
495 1 12.2098 4.01855 
687 2 13.9953 3.40093 
41 1 13.2465 3.95107 
369 1 14.285 4.17196 
300 1 15.0012 3.47313 
979 2 15.7534 3.9546 
332 1 15.9619 2.95463 
191 1 16.6351 3.7103 
208 1 17.5589 3.59984 
43 1 19.9263 2.88684 
216 1 18.8096 3.59496 
897 2 19.6417 3.67592 
547 1 20.4747 4.03103 
341 1 21.6367 3.14846 
846 2 20.8097 3.27228 
664 2 21.3529 4.01809 
134 1 22.6598 2.92039 
646 1 22.1919 3.99874 
874 2 23.0674 3.72882 
350 1 23.8025 2.93255 
573 1 23.9028 3.94582 
398 1 24.8389 3.28083 
247 1 25.7802 3.91473 
795 2 26.5292 3.40254 
380 1 27.3925 3.45446 
140 1 26.7295 4.25371 
756 2 28.2665 3.2715 
240 1 28.0242 4.18209 
891 2 0.040396 4.55033 
493 1 0.816827 4.98243 
982 2 0.326003 5.64174 
221 1 1.77444 4.4273 
776 2 1.63512 5.24626 
108 1 2.40165 5.5397 
864 2 2.63783 4.67688 
52 1 3.53821 4.70446 
447 1 4.08965 5.70215 
949 2 3.23787 5.61416 
923 2 4.78309 5.11664 
258 1 5.5071 4.71998 
423 1 5.338 5.77739 
863 2 6.02844 5.38181 
427 1 6.7355 4.90743 
876 2 7.17368 5.66753 
643 1 7.93957 5.2305 
786 2 8.55878 4.60266 
520 1 9.44552 4.34006 
693 2 9.85369 5.14493 
163 1 9.1216 5.39211 
413 1 10.4263 4.53924 
89 1 10.6094 5.54903 
164 1 11.4291 4.78268 
199 1 12.4711 5.02954 
110 1 11.7582 5.75091 
388 1 13.5388 4.92968 
944 2 14.3003 5.10715 
292 1 15.1205 4.6349 
791 2 15.46 5.36208 
206 1 17.2053 4.61591 
225 1 16.1967 4.79819 
508 1 17.0324 5.6001 
497 1 18.3058 4.53463 
832 2 17.8327 5.30404 
762 2 18.9175 5.16179 
500 1 19.4698 4.53017 
563 1 19.6218 5.66704 
348 1 20.4401 5.08147 
192 1 21.3987 4.84836 
530 1 22.5205 5.4588 
531 1 23.1319 4.55755 
778 2 23.3666 5.39891 
505 1 24.1059 4.95564 
714 2 24.6836 5.60144 
588 1 24.9063 4.3941 
205 1 25.4564 5.37268 
836 2 26.0562 4.7314 
509 1 26.5382 5.49028 
428 1 27.4769 5.01787 
149 1 28.4645 5.30864 
377 1 1.15401 6.01976 
858 2 1.18917 6.89604 
865 2 0.465275 6.47789 
688 2 1.97422 6.2985 
596 1 2.02671 7.13541 
178 1 2.91554 6.48148 
26 1 3.93098 6.6777 
704 2 4.74785 6.35426 
469 1 5.68766 6.76283 
376 1 6.44147 6.09987 
869 2 6.58489 6.90573 
590 1 7.34363 6.48622 
96 1 8.38717 6.23371 
978 2 7.99531 7.09875 
866 2 9.22558 6.36204 
553 1 10.0829 6.46672 
752 2 10.991 6.36313 
798 2 12.5363 7.18527 
104 1 12.5688 6.34212 
304 1 11.637 7.01495 
195 1 13.6203 5.96273 
878 2 14.2312 6.48686 
331 1 13.4236 6.95215 
345 1 14.7717 5.80108 
40 1 14.9473 6.91849 
29 1 16.028 5.97822 
652 2 15.9087 6.80651 
231 1 16.7105 6.699 
784 2 17.5929 6.28743 
48 1 18.4391 5.93292 
972 2 18.3305 6.82211 
139 1 17.621 7.16943 
809 2 19.1545 6.38834 
834 2 19.9288 6.71614 
320 1 21.6175 5.85692 
382 1 20.5744 6.11872 
672 2 21.2765 6.61215 
115 1 20.6694 7.21205 
578 1 22.0972 6.75361 
603 1 23.0432 6.36991 
354 1 24.0582 6.09293 
666 2 24.4103 6.95287 
302 1 25.0262 6.3708 
82 1 25.7643 7.12294 
946 2 25.8704 6.12156 
612 1 26.5914 6.49167 
740 2 27.3655 6.90727 
950 2 28.4371 6.1697 
554 1 27.6032 6.03509 
190 1 28.1982 7.00294 
1 1 1.21882 7.77343 
515 1 0.341386 7.31444 
317 1 0.310613 8.36254 
727 2 1.19629 8.6079 
841 2 2.03662 7.98716 
685 2 2.82671 7.4468 
168 1 2.75098 8.35091 
305 1 3.61138 7.66507 
871 2 3.6433 8.51192 
339 1 4.78968 7.23151 
971 2 5.44125 7.94504 
409 1 4.53499 8.21088 
457 1 6.22828 7.65597 
157 1 7.24229 7.50113 
702 2 8.11195 8.02607 
527 1 7.47217 8.49514 
998 2 9.66683 7.25413 
456 1 8.81886 7.28514 
696 2 9.18807 8.1191 
711 2 10.0966 8.02159 
916 2 10.7222 7.24359 
492 1 10.9975 7.97678 
461 1 12.5434 8.04555 
991 2 11.7458 8.39074 
894 2 13.3616 7.8494 
706 2 14.1906 7.37019 
541 1 14.3335 8.24073 
907 2 15.1444 7.77366 
167 1 15.3793 8.62235 
653 2 16.8566 7.5977 
488 1 15.9594 7.70863 
657 2 16.5431 8.46778 
956 2 18.326 7.72364 
1000 2 17.4822 8.15719 
91 1 18.253 8.58616 
364 1 19.0856 7.27089 
671 2 19.0404 8.22239 
730 2 19.8889 7.60312 
94 1 20.4384 8.19294 
188 1 21.6039 7.83352 
831 2 21.1506 8.65996 
404 1 22.6272 7.55761 
820 2 22.4349 8.34649 
284 1 23.575 7.27482 
691 2 23.2123 8.05204 
537 1 24.0365 8.33965 
638 1 24.8381 7.66574 
319 1 25.8957 8.15415 