ITEM: TIMESTEP
0
ITEM: NUMBER OF ATOMS
2048
ITEM: BOX BOUNDS pp pp pp
1.2201011072971337e+01 6.0031526828497036e+01
1.2201011072971337e+01 6.0031526828497036e+01
-1.0540925533894598e+00 1.0540925533894598e+00
ITEM: ATOMS id type x y mux muy 
975 1 13.6035 13.3644 -0.963166 -0.268906 
1423 1 12.5789 12.8684 -0.940761 -0.339071 
1397 1 12.6501 13.8641 -0.810069 0.586335 
1258 1 13.369 12.245 -0.0650536 -0.997882 
1518 1 14.3223 12.5361 0.383593 0.923502 
1376 1 14.7166 13.6673 -0.930927 -0.365206 
1467 1 15.5047 12.9376 -0.999145 -0.0413321 
497 1 16.6092 13.1915 -0.264378 -0.964419 
1034 1 17.2992 12.2755 0.366803 0.930299 
278 1 17.6339 13.3489 0.771805 -0.63586 
1739 1 18.9302 13.4532 -0.994476 -0.10496 
244 1 18.4617 12.4779 -0.997238 -0.0742774 
1473 1 19.6682 12.7043 -0.9989 0.0468951 
1671 1 20.7273 12.8098 0.499112 0.866538 
688 1 20.0494 13.7718 0.980502 0.196511 
529 1 21.8318 12.8185 0.192808 0.981237 
1530 1 21.2062 13.7379 -0.525784 -0.850618 
2041 1 22.2348 13.8111 0.434388 0.900726 
1960 1 24.0417 13.0508 -0.39668 0.917957 
2012 1 22.9063 13.0572 0.997458 0.0712596 
1779 1 13.764 14.3957 0.836759 0.547572 
1545 1 12.8852 14.9305 -0.936782 -0.349913 
11 1 14.0431 15.4091 0.945212 0.326456 
709 1 15.0953 14.7281 -0.969042 -0.246897 
1628 1 15.8526 13.9887 0.910693 0.413084 
1227 1 16.1926 15.0818 -0.856652 -0.515894 
569 1 16.994 14.3349 -0.677535 0.735491 
395 1 17.2697 15.2931 -0.456116 0.88992 
891 1 18.0225 14.3199 0.640028 -0.768352 
243 1 18.3244 15.3327 -0.683753 0.729714 
1220 1 19.2483 14.4678 -0.911418 -0.411482 
549 1 19.3424 15.4658 -0.7584 0.65179 
1293 1 20.7989 14.755 -0.564531 -0.825412 
517 1 21.8278 14.8012 0.566666 0.823948 
402 1 23.579 14.0775 -0.532443 -0.846466 
1690 1 22.9357 14.9657 -0.35278 -0.935706 
1537 1 24.0805 15.1459 -0.618231 -0.785997 
1263 1 13.192 15.9641 -0.956301 -0.292384 
1252 1 13.4192 16.9699 -0.578707 0.815536 
1676 1 15.2408 15.7449 0.970087 0.242759 
1720 1 14.4675 16.4009 -0.863655 -0.504083 
422 1 15.5606 16.7751 -0.952451 -0.30469 
1920 1 16.4031 16.087 -0.592729 0.805402 
1785 1 16.6592 17.2257 -0.23389 -0.972263 
110 1 17.525 16.4529 -0.583583 -0.812053 
1003 1 18.5507 16.4307 0.592461 -0.805599 
1223 1 20.3323 15.6785 0.444359 0.895849 
641 1 19.6008 16.6907 0.640273 -0.768147 
773 1 20.6551 16.7882 0.66376 -0.747945 
352 1 21.3892 15.804 0.700019 -0.714124 
304 1 21.7678 16.8425 0.525058 -0.851067 
1404 1 24.113 17.0834 -0.335007 -0.942216 
1166 1 22.5005 15.8794 -0.964195 0.265193 
1416 1 23.582 16.0581 0.404016 0.914752 
1678 1 22.9253 16.9265 -0.987586 -0.15708 
717 1 12.7948 18.816 -0.876944 -0.480593 
316 1 12.4755 17.6312 0.925947 0.377653 
538 1 13.7214 18.0661 -0.92771 -0.373302 
1564 1 14.5537 17.4372 0.884812 0.465948 
1725 1 14.9738 18.5226 -0.914857 -0.403777 
1358 1 15.7396 17.8095 0.958088 0.286474 
1469 1 16.8423 18.3776 -0.91723 -0.398357 
1511 1 17.6269 17.6648 0.577975 -0.816054 
470 1 17.9768 18.6317 0.991204 0.132346 
1560 1 18.8478 17.6178 -0.955001 -0.296602 
481 1 19.1718 18.6269 0.96897 0.247177 
755 1 19.9026 17.6568 -0.496181 0.868219 
1593 1 20.3887 18.7146 -0.551805 -0.833973 
2045 1 20.9988 17.7134 -0.520284 0.853993 
323 1 21.4636 18.7226 0.617703 0.786412 
1549 1 22.1316 17.8495 0.996571 0.0827379 
1261 1 22.632 18.8831 -0.612883 -0.790174 
752 1 23.4384 17.857 -0.98338 -0.181557 
1242 1 23.7573 18.8784 -0.960034 -0.279882 
649 1 12.9749 19.8031 0.919743 0.392521 
1653 1 14.0025 19.0374 -0.526199 0.850361 
1910 1 15.0069 19.5696 0.0317414 -0.999496 
1189 1 14.1423 20.1905 -0.964731 -0.263239 
468 1 15.4175 20.617 0.0544628 -0.998516 
2017 1 16.0128 19.3828 0.42447 -0.905442 
754 1 16.5716 20.2715 0.989545 0.144226 
1958 1 17.2543 19.4179 -0.998241 -0.0592795 
1314 1 18.5591 19.584 -0.966518 -0.2566 
1987 1 17.7246 20.3723 0.998499 0.0547776 
255 1 18.9461 20.562 0.996459 0.0840856 
994 1 19.7839 19.5748 -0.999812 -0.0194119 
942 1 20.3699 20.5816 -0.984731 -0.174082 
1044 1 20.9547 19.6827 -0.459531 -0.888162 
1488 1 22.035 19.7563 0.649388 0.760457 
1038 1 23.1549 19.9431 -0.545674 -0.837998 
782 1 13.3369 21.2063 0.747402 -0.664372 
1581 1 13.4811 22.2994 0.783664 -0.621185 
1421 1 12.4898 22.2574 -0.575764 0.817616 
1591 1 12.2567 21.2208 -0.530055 0.847963 
940 1 14.5914 21.2047 -0.924323 -0.381612 
1241 1 14.6371 22.323 -0.468362 -0.883537 
1635 1 16.0781 21.3686 0.995774 -0.0918383 
1341 1 15.6441 22.2933 0.527709 0.849425 
556 1 17.1576 21.202 0.501937 0.864904 
319 1 16.8371 22.2489 -0.466983 -0.884267 
1139 1 18.3382 21.3908 0.345896 0.938273 
997 1 17.8684 22.3729 0.544066 0.839043 
1243 1 19.0071 22.3849 0.490019 0.871712 
1013 1 19.5729 21.5069 -0.457837 -0.889036 
260 1 20.6489 21.5923 0.998712 0.0507309 
361 1 21.4237 20.7478 0.31737 -0.948302 
1384 1 21.864 21.6457 0.992712 0.120507 
129 1 22.5608 20.7718 -0.993894 -0.110338 
1923 1 23.8652 20.8775 -0.966232 -0.257673 
394 1 23.045 21.6914 0.991446 0.130519 
1195 1 13.2037 23.2981 -0.845425 0.534093 
235 1 14.2298 23.457 0.701059 -0.713104 
991 1 15.3386 23.3855 -0.604939 -0.796272 
383 1 16.3917 23.2475 0.507643 0.861568 
382 1 17.4402 23.5288 0.890627 -0.454735 
584 1 18.5925 23.4352 -0.462309 -0.886719 
189 1 20.0934 22.4762 0.467115 0.884197 
582 1 19.683 23.4924 0.547817 0.836598 
837 1 20.8129 23.4961 0.534311 0.845288 
1942 1 21.9445 23.641 -0.413346 -0.910574 
1109 1 21.2659 22.5204 0.993552 -0.11338 
686 1 23.682 22.6474 0.523101 0.852271 
687 1 22.5138 22.599 -0.999333 0.0365264 
1105 1 22.9973 23.5464 0.518698 -0.854957 
1907 1 13.294 25.396 -0.415195 -0.909733 
2 1 12.7286 24.4813 0.989984 0.141177 
348 1 13.828 24.4171 0.513717 0.85796 
476 1 14.3103 25.5081 0.731779 -0.681542 
995 1 14.949 24.429 0.575197 -0.818015 
79 1 15.3646 25.4226 0.476478 -0.879186 
618 1 16.4377 25.4604 0.45142 -0.892312 
454 1 17.1196 24.4931 0.553339 0.832956 
487 1 16.0546 24.3792 -0.937365 0.348349 
692 1 17.5563 25.4561 -0.456875 0.889531 
96 1 18.5908 25.3858 0.591755 -0.806118 
1281 1 18.1444 24.4075 0.611036 0.791603 
919 1 19.2188 24.4242 0.347423 0.937708 
778 1 20.3864 24.5192 -0.33992 -0.940454 
1279 1 19.7883 25.3787 -0.997612 -0.0690729 
1151 1 20.9025 25.553 -0.443717 -0.896167 
1396 1 21.4656 24.5652 0.324396 0.945921 
1713 1 21.9097 25.6532 0.396669 0.917961 
2016 1 22.5246 24.7528 0.236199 -0.971705 
1418 1 23.599 24.4804 0.376947 -0.926235 
1562 1 23.0695 25.6506 -0.32222 0.946665 
1877 1 24.0893 25.3996 0.400351 -0.916362 
675 1 13.4754 26.9462 -0.217434 0.976075 
672 1 12.7665 26.2362 -0.994405 0.105631 
1563 1 12.3848 27.2908 0.325821 0.945431 
506 1 14.4425 26.5283 0.927913 0.372798 
654 1 15.2328 27.3418 0.60622 0.795297 
1532 1 15.6929 26.4312 0.995897 0.090498 
656 1 16.8184 26.4297 -0.62608 0.779759 
1221 1 16.3676 27.4954 -0.487705 -0.873008 
218 1 17.9659 26.4439 -0.55403 0.832497 
102 1 18.6989 27.2989 0.378036 0.925791 
1820 1 17.3887 27.3761 0.412058 -0.911158 
534 1 19.0585 26.3545 -0.615862 -0.787854 
1731 1 20.2063 26.3701 -0.601713 0.798712 
158 1 19.7696 27.4079 0.622514 0.782609 
605 1 21.2372 26.5873 -0.447745 -0.894161 
1199 1 22.3755 26.6722 0.999998 -0.00186771 
433 1 20.8373 27.5641 -0.675087 0.737738 
1485 1 23.7191 26.6496 -0.700863 -0.713295 
500 1 13.2368 28.134 -0.979595 -0.200983 
1524 1 12.6291 29.0959 -0.989094 -0.147287 
1122 1 13.7709 28.9954 -0.403789 0.914852 
1254 1 14.2172 27.7047 -0.0987155 0.995116 
1106 1 14.741 28.6887 0.264762 -0.964314 
1977 1 15.8308 28.4572 0.447472 0.894298 
985 1 16.9523 28.5328 -0.592705 -0.80542 
486 1 18.0211 28.2923 0.450657 -0.892697 
478 1 18.6811 29.2263 0.446949 0.894559 
872 1 19.266 28.4128 -0.43256 -0.901605 
1973 1 20.2829 28.4238 0.393798 0.919197 
1434 1 21.8966 27.5863 0.430722 0.902485 
960 1 21.3222 28.6532 0.974842 -0.222896 
1500 1 23.064 27.6489 -0.441533 -0.897245 
1411 1 22.5962 28.5703 -0.993174 0.116641 
1080 1 23.6655 28.6971 0.557229 0.830359 
55 1 24.138 27.7082 0.39607 -0.91822 
1729 1 13.2079 29.9978 0.469641 -0.882858 
845 1 13.719 30.937 0.317183 -0.948364 
1340 1 12.21 30.1981 -0.262189 0.965017 
1969 1 14.3484 29.8661 -0.41109 0.911595 
441 1 15.2964 29.6316 0.412609 -0.910908 
498 1 14.998 30.8192 -0.352236 0.935911 
85 1 16.4573 29.4594 -0.995286 -0.0969798 
897 1 15.9426 30.5421 0.315961 -0.948772 
653 1 17.077 30.3677 0.381446 -0.924391 
1121 1 17.684 29.4017 -0.563169 -0.826342 
885 1 18.2563 30.3409 -0.314344 0.949309 
1833 1 19.3 30.2653 0.460866 0.88747 
1039 1 19.8298 29.4244 -0.453438 -0.891288 
1803 1 20.4534 30.5135 -0.684125 -0.729365 
1502 1 20.8735 29.5055 0.541315 0.84082 
1448 1 22.0444 29.481 -0.528115 -0.849173 
103 1 21.542 30.4489 -0.414984 -0.909829 
713 1 22.638 30.5715 -0.999758 0.02199 
515 1 23.1184 29.621 -0.994937 0.100498 
1617 1 23.8034 30.3976 0.24783 -0.968803 
822 1 12.6893 31.1181 -0.287732 0.957711 
599 1 13.1034 32.0744 0.325116 -0.945674 
1133 1 14.3011 31.8337 -0.430916 0.902392 
1338 1 15.4551 31.7746 -0.516075 0.856544 
1791 1 16.4971 31.3878 -0.444916 0.895572 
1677 1 17.0611 32.3841 0.38655 -0.922268 
1919 1 17.5335 31.3306 0.228874 -0.973456 
576 1 18.2179 32.098 0.0132809 0.999912 
1193 1 18.8313 31.2633 0.999995 0.00322799 
1953 1 19.3318 32.3279 -0.417626 -0.908619 
1033 1 19.923 31.4298 0.402349 0.915487 
1652 1 20.3458 32.4498 0.600564 -0.799577 
405 1 20.977 31.4324 -0.438629 0.898668 
1967 1 21.9837 31.4573 0.497067 -0.867712 
1648 1 21.5162 32.5 0.387337 -0.921938 
287 1 22.6638 32.41 -0.921219 -0.389044 
434 1 23.1765 31.4284 -0.174332 0.984687 
642 1 23.7418 32.376 -0.429654 0.902994 
86 1 12.7106 33.1545 0.685911 -0.727686 
1037 1 13.1747 34.0918 -0.668044 -0.744122 
693 1 13.7519 32.9289 0.301768 -0.953382 
234 1 14.9276 32.7966 -0.993049 -0.1177 
1710 1 14.2983 33.7666 -0.446745 0.894662 
1285 1 15.4641 33.6821 0.999961 -0.00883514 
1213 1 16.1337 32.7266 -0.964649 -0.263538 
980 1 16.6819 33.6287 -0.217983 0.975953 
47 1 17.6745 33.2454 0.967796 0.251737 
1043 1 18.776 33.2729 -0.577726 -0.816231 
101 1 18.4336 34.2583 0.706675 0.707539 
1959 1 19.7752 33.384 0.439501 0.898242 
1147 1 20.8667 33.48 -0.463006 -0.886355 
1082 1 21.9885 33.5297 -0.483618 -0.875279 
399 1 23.0272 33.389 -0.515411 0.856943 
1637 1 24.0819 33.5222 -0.663919 -0.747804 
580 1 12.9493 35.0901 0.732375 0.680902 
1055 1 13.6714 35.8978 -0.318182 0.94803 
922 1 14.1586 34.9317 -0.832442 -0.554112 
145 1 15.1421 34.6465 0.488857 -0.872364 
827 1 14.7337 35.8149 -0.423401 0.905942 
33 1 15.7106 35.5634 0.927061 0.37491 
751 1 16.3025 34.5703 -0.981121 0.193393 
1682 1 16.9156 35.4348 0.989737 -0.142899 
1935 1 17.4524 34.4313 -0.435582 0.900149 
1031 1 18.0806 35.3731 -0.412801 -0.910821 
1365 1 19.0901 35.5181 0.476389 0.879234 
604 1 19.5031 34.5749 -0.6407 -0.767791 
562 1 20.132 35.5648 0.589791 0.807556 
627 1 20.5911 34.6144 -0.603951 -0.797022 
796 1 21.6149 34.4786 0.602087 0.79843 
1550 1 22.3275 35.4888 0.52193 0.852988 
18 1 21.2873 35.5462 -0.670126 -0.742247 
1789 1 22.727 34.5257 -0.703786 -0.710412 
718 1 23.4567 35.583 -0.631189 -0.775629 
590 1 23.7503 34.5248 0.65757 0.753394 
1721 1 13.3828 37.2017 -0.721626 -0.692283 
1023 1 12.6655 36.3438 0.180787 -0.983522 
1175 1 12.3561 37.5737 -0.641943 -0.766753 
1087 1 14.4422 36.9894 -0.654007 -0.756489 
1363 1 15.4088 36.7235 0.851578 0.524228 
873 1 15.3253 37.8239 -0.938489 0.345309 
1749 1 16.4323 37.4483 0.764175 0.645009 
2046 1 16.5402 36.4169 -0.685286 -0.728274 
1716 1 18.5563 36.5171 0.38949 0.921031 
1825 1 17.7141 37.3653 0.80014 0.599813 
416 1 17.5523 36.3337 0.65741 0.753533 
100 1 18.9963 37.5665 0.0405605 -0.999177 
803 1 19.6437 36.5906 0.243945 -0.969789 
142 1 20.2007 37.451 0.989317 -0.145777 
866 1 20.782 36.5557 -0.989785 -0.142567 
1609 1 21.9268 36.487 0.791911 -0.610637 
1428 1 21.3505 37.4245 -0.520762 0.853702 
1226 1 22.4876 37.5417 -0.477694 -0.878526 
1735 1 23.5344 37.4532 0.573621 0.819121 
925 1 23.0302 36.5058 -0.506086 -0.862483 
1136 1 24.0854 36.4717 0.997828 -0.0658687 
159 1 13.2047 38.2958 -0.727855 -0.685731 
1262 1 12.8665 39.3341 -0.258247 0.966079 
164 1 13.923 39.1833 0.529117 -0.848549 
988 1 14.2041 38.049 0.672011 0.740541 
1814 1 14.9501 38.8524 0.768546 0.639794 
629 1 16.0665 38.5368 -0.337549 0.941308 
1302 1 17.0567 38.3292 0.37708 -0.926181 
525 1 16.582 39.4606 -0.380156 0.924922 
863 1 18.2491 38.3776 -0.9924 0.123056 
32 1 17.6115 39.2482 -0.993366 0.114991 
666 1 19.0499 39.1734 -0.999658 -0.0261448 
1131 1 19.7173 38.3966 -0.479746 -0.877408 
132 1 20.1797 39.3644 0.998848 0.0479929 
1620 1 20.8266 38.4583 0.688137 0.72558 
737 1 21.9635 38.451 -0.997373 0.0724315 
546 1 22.4379 39.3975 -0.544273 0.838908 
193 1 23.132 38.5104 -0.811168 -0.584813 
697 1 24.1436 38.4097 0.449596 -0.893232 
1463 1 12.3423 40.4979 -0.6487 -0.761045 
900 1 13.3399 40.3905 0.510015 -0.860165 
1544 1 14.5032 40.0194 -0.350643 0.936509 
798 1 15.0375 40.9223 -0.397634 0.917544 
407 1 15.495 39.8098 0.286787 -0.957994 
75 1 16.142 40.6229 0.999965 -0.00834151 
1510 1 17.2918 40.4544 -0.857774 -0.514027 
183 1 18.2807 40.1273 0.292765 -0.956185 
2000 1 18.88 40.9459 0.999977 0.00685531 
2032 1 19.534 40.1145 0.987761 0.155978 
505 1 19.9334 41.2113 0.168115 0.985767 
1531 1 20.6161 40.3849 -0.650733 0.759307 
265 1 21.3125 39.536 0.998775 -0.0494724 
781 1 21.6322 40.6226 0.37234 -0.928096 
1523 1 23.4311 39.5342 0.604225 -0.796814 
423 1 22.75 40.5754 0.363848 -0.931458 
882 1 23.957 40.4422 -0.380803 0.924656 
488 1 13.0019 42.0559 0.285664 0.95833 
1004 1 13.7247 41.3419 0.985333 0.170644 
1776 1 14.0243 42.5384 0.882663 -0.470006 
1595 1 14.9991 42.0171 -0.902875 -0.429903 
1696 1 15.956 41.6927 0.216216 -0.976346 
74 1 16.5992 42.4944 0.998952 -0.0457655 
815 1 17.206 41.4961 -0.82667 0.562687 
1076 1 18.2234 41.7202 0.414114 0.910225 
148 1 17.8332 42.7851 -0.283134 -0.95908 
162 1 19.3269 42.1503 -0.367711 -0.92994 
1905 1 20.3237 42.4328 0.259274 0.965804 
1093 1 20.9295 41.4934 0.28967 0.957127 
1765 1 21.5467 42.4303 -0.999646 0.026596 
568 1 22.1084 41.6003 0.997941 0.0641393 
1132 1 23.3174 41.4754 0.999012 -0.0444372 
559 1 22.8119 42.4338 0.998631 -0.0523149 
957 1 24.0054 42.3906 -0.992623 0.12124 
1161 1 12.939 43.0736 -0.856943 0.51541 
527 1 12.7561 44.1327 -0.858268 0.513202 
1553 1 13.8528 43.5886 -0.97941 0.20188 
1790 1 15.0183 43.0199 -0.893223 0.449614 
53 1 14.6709 44.2454 0.917869 -0.396883 
1200 1 16.0462 43.3943 0.69665 -0.717411 
54 1 16.2659 44.3613 0.931387 0.364032 
62 1 17.1626 43.5639 -0.987013 -0.160643 
1538 1 18.853 43.0619 -0.192766 -0.981245 
1190 1 18.3963 43.9852 -0.977258 0.212052 
2013 1 17.4762 44.5753 -0.872874 -0.487945 
1052 1 19.8167 43.3934 0.34818 0.937428 
788 1 19.3092 44.4824 0.947087 -0.320978 
214 1 20.3398 44.3007 0.420703 -0.907198 
1092 1 21.0142 43.3806 -0.999725 -0.0234476 
1528 1 21.5891 44.2517 0.999654 0.0262864 
257 1 22.2477 43.2738 -0.99549 -0.094863 
1842 1 23.4497 43.3635 0.996756 0.0804829 
805 1 22.7794 44.1687 -0.992176 0.12485 
1016 1 13.6023 44.7238 0.93587 -0.352344 
1644 1 12.4998 45.2788 0.905851 -0.423597 
875 1 13.6004 45.7478 -0.786275 -0.617876 
1059 1 14.5333 45.2705 0.75617 0.654376 
1408 1 15.3058 46.2319 -0.807909 0.589307 
245 1 15.6171 45.2224 -0.640219 -0.768192 
1798 1 16.6502 45.4884 0.922868 -0.385116 
1165 1 17.8457 45.5334 -0.643224 0.765678 
5 1 18.8839 45.4699 0.471886 0.88166 
984 1 20.024 45.4954 -0.849538 -0.527528 
1203 1 20.7489 46.2939 0.360009 -0.932949 
37 1 20.9851 45.2095 0.696094 0.71795 
1040 1 21.8274 46.0187 0.343682 -0.939086 
1201 1 22.2239 45.0773 0.994998 0.0998965 
1566 1 22.9502 46.008 0.409618 -0.912257 
57 1 23.4113 45.0307 0.999517 -0.0310784 
1845 1 12.4642 46.3773 -0.0575871 -0.99834 
926 1 12.7316 47.5288 -0.959616 -0.281313 
592 1 13.5923 46.8398 -0.75783 0.652452 
1771 1 13.9812 47.8872 -0.955371 -0.295408 
587 1 14.6052 47.1154 -0.295138 -0.955455 
254 1 15.6738 47.2838 -0.999482 -0.0321901 
1996 1 16.3183 46.5014 -0.340796 -0.940137 
1840 1 16.8686 47.4584 0.978163 0.207839 
1909 1 17.3459 46.4801 0.520826 0.853663 
98 1 18.5525 46.5455 -0.732532 -0.680733 
1642 1 18.1034 47.5627 -0.438763 -0.898603 
862 1 19.6348 46.4219 0.576259 0.817267 
1507 1 19.1322 47.5052 -0.463786 0.885947 
213 1 20.1607 47.3981 0.448612 -0.893726 
61 1 21.3184 47.1584 -0.302172 0.953253 
1797 1 22.3267 47.0064 0.468711 -0.883352 
219 1 24.1144 47.8922 -0.531725 0.846917 
197 1 23.432 46.9346 0.990717 0.135941 
1336 1 22.9127 47.9138 0.486796 -0.873516 
1554 1 12.9773 48.5011 0.914084 0.405525 
1312 1 13.307 49.5873 -0.917136 -0.398575 
1924 1 14.1594 48.9019 -0.759658 0.650322 
34 1 15.2693 49.2844 -0.254634 -0.967037 
1102 1 15.05 48.1389 0.243981 0.96978 
1447 1 16.6519 49.2092 0.999948 -0.0101765 
1912 1 16.2025 48.2483 -0.993118 -0.117114 
1590 1 17.4996 48.3816 -0.983334 -0.181807 
1232 1 17.8288 49.325 0.997415 0.0718586 
596 1 18.6785 48.5246 -0.475714 0.8796 
876 1 19.0645 49.5108 0.999882 0.0153679 
1755 1 20.2186 49.3614 -0.400558 0.916272 
1908 1 19.7324 48.4684 0.471102 -0.882079 
662 1 21.2353 49.1919 0.419107 -0.907937 
1741 1 22.2766 49.037 -0.427371 0.904076 
1084 1 20.8176 48.1553 -0.253629 0.967301 
1770 1 21.8675 48.1111 0.521816 -0.853058 
117 1 23.2583 48.8851 0.857744 0.514076 
1995 1 13.3811 50.6281 -0.75182 0.659369 
1099 1 12.4987 51.2535 0.847826 -0.530275 
67 1 12.3935 50.1742 -0.906895 -0.421357 
108 1 14.4676 50.0396 0.846538 -0.532328 
1015 1 15.3383 50.825 0.451441 -0.892301 
21 1 14.335 51.1359 -0.786292 -0.617855 
1172 1 16.1189 50.0687 -0.997687 -0.0679706 
1817 1 16.6001 51.0367 -0.278278 -0.9605 
736 1 17.294 50.1952 -1 4.21036e-06 
526 1 18.4901 50.3334 -0.982221 -0.187727 
929 1 17.6826 51.158 0.987339 -0.158625 
1459 1 18.8579 51.2559 -0.694358 0.71963 
1627 1 19.6461 50.4733 -0.830637 -0.556814 
1256 1 20.6606 50.3485 0.232002 -0.972715 
1691 1 21.7158 50.1306 0.994317 0.10646 
531 1 21.3241 51.1112 0.986824 -0.1618 
462 1 22.464 51.0287 -0.608121 -0.793844 
1138 1 23.9069 49.9001 0.515306 0.857006 
1450 1 22.8506 49.9731 -0.690517 -0.723316 
1164 1 23.4599 50.9368 0.535379 -0.844612 
530 1 13.4411 51.8017 -0.0557602 -0.998444 
167 1 12.5791 52.3442 -0.88702 -0.461731 
1700 1 13.5403 52.9812 0.897289 -0.441444 
1472 1 14.4936 52.2599 -0.806914 0.590669 
1900 1 15.3952 52.6908 0.510281 0.860008 
939 1 15.9373 51.779 -0.999646 -0.0266083 
377 1 16.4794 52.8317 0.489897 0.871781 
512 1 17.1626 52.0536 -0.308034 -0.951375 
514 1 18.2245 52.2155 0.491107 -0.871099 
10 1 18.6534 53.165 0.388679 0.921373 
1097 1 19.9532 51.5273 -0.261759 -0.965133 
560 1 19.3262 52.3929 -0.204338 -0.9789 
846 1 20.265 52.8225 0.338376 0.941011 
1402 1 20.9083 52.0122 0.331014 0.943626 
1727 1 22.0643 52.0315 0.457735 0.889089 
2042 1 21.4408 53.0456 -0.270573 -0.962699 
1668 1 22.546 53.012 -0.520475 0.853877 
1708 1 23.0829 51.9869 0.398421 -0.917203 
972 1 23.604 52.8773 -0.388926 0.921269 
553 1 12.4763 54.4583 0.851905 0.523696 
1409 1 13.4111 53.9904 0.887082 0.461611 
1045 1 12.4204 53.4159 0.78457 -0.620041 
1782 1 14.4894 53.5736 0.880839 -0.473415 
989 1 14.3636 54.5905 -0.760559 0.649269 
196 1 15.3171 54.8086 0.530327 0.847793 
466 1 15.5846 53.8421 0.883583 -0.468274 
1237 1 16.9451 54.0778 -0.103484 -0.994631 
832 1 17.5562 53.2222 0.998171 -0.0604529 
1362 1 18.1379 54.3224 -0.345581 -0.938389 
1533 1 19.113 54.6464 0.301291 0.953532 
1580 1 19.5692 53.7547 0.981511 -0.191407 
40 1 20.2096 54.7214 -0.476053 -0.879416 
1277 1 20.7838 53.8186 -0.983504 -0.180885 
655 1 21.9135 54.0142 0.990842 0.135029 
927 1 21.2302 54.7509 -0.000782153 1 
1260 1 22.6208 54.9039 -0.996293 0.0860275 
1257 1 23.1267 54.035 -0.458003 -0.888951 
1333 1 23.825 54.8305 -0.716583 -0.697502 
1596 1 13.4785 55.0999 -0.936925 -0.349531 
1361 1 12.6029 55.6614 -0.981854 -0.18964 
482 1 13.6859 56.1015 -0.876076 -0.482172 
516 1 14.5564 55.613 0.884638 0.466279 
1536 1 15.6685 55.9158 0.738407 -0.674355 
1780 1 16.3951 54.9576 0.470865 0.882205 
1405 1 16.7783 56.1271 0.979229 -0.202758 
883 1 17.5564 55.1653 -0.987653 0.15666 
1522 1 18.5978 55.5821 -0.997722 0.0674641 
99 1 17.9547 56.4641 -0.973142 -0.230207 
728 1 19.1006 56.4862 -0.994898 -0.100885 
459 1 19.7287 55.6244 -0.999893 0.0146016 
867 1 20.8745 55.7481 0.356157 0.934426 
714 1 22.0299 55.8476 0.740034 -0.67257 
313 1 23.1409 55.7552 -0.565253 0.824918 
1270 1 12.7978 56.7497 0.343174 -0.939272 
624 1 13.0344 57.7592 -0.974451 -0.224602 
8 1 13.8647 57.097 0.971588 0.236679 
415 1 14.889 56.7861 0.395536 -0.91845 
1156 1 15.3435 57.814 -0.619965 0.78463 
1801 1 14.2617 58.0908 -0.892344 -0.451355 
674 1 16.0526 56.883 -0.983451 -0.181177 
1360 1 16.3373 57.9934 0.612115 -0.790769 
1233 1 17.2127 57.3123 0.692883 -0.72105 
157 1 17.507 58.3062 0.989553 0.144172 
1014 1 18.3481 57.4673 0.609925 -0.792459 
930 1 20.1742 56.622 0.548104 -0.836411 
1981 1 19.4837 57.5504 -0.919342 -0.393458 
1291 1 20.6342 57.5065 -0.521894 0.85301 
652 1 21.308 56.7107 0.985468 0.169859 
540 1 21.6969 57.8846 -0.811619 -0.584187 
589 1 22.4195 56.8319 -0.460858 0.887474 
881 1 22.7622 57.9591 0.489091 -0.872233 
106 1 23.9257 57.8184 -0.554212 0.832375 
425 1 23.4871 56.8873 0.476335 -0.879264 
1557 1 13.2999 58.8273 -0.68574 0.727846 
446 1 12.3301 59.581 0.949513 0.313729 
2007 1 14.3028 59.1588 -0.88095 0.47321 
2019 1 15.1626 59.682 0.175929 0.984403 
1077 1 15.7224 58.8608 -0.335311 -0.942108 
1406 1 16.8331 59.0567 0.295013 0.955493 
725 1 16.2041 59.9526 0.296626 0.954994 
1029 1 18.6668 58.5209 0.294484 -0.955656 
492 1 17.9712 59.2901 0.956838 0.290622 
1587 1 19.1129 59.5134 -0.374188 -0.927353 
437 1 19.8025 58.572 -0.70306 0.71113 
1130 1 20.172 59.6396 -0.421506 -0.906826 
537 1 20.8065 58.6939 0.492836 -0.870122 
1512 1 21.8868 58.8798 0.970709 0.24026 
1431 1 21.2149 59.6795 0.429438 0.903096 
1211 1 23.6154 59.9782 -0.993088 -0.117369 
69 1 23.1682 58.9192 -0.495165 0.868799 
963 1 22.464 59.8559 0.999364 0.0356703 
2018 1 25.0972 12.98 0.434371 -0.900734 
1675 1 26.1975 12.953 0.999411 0.0343151 
188 1 27.3497 13.0939 -0.534947 -0.844886 
203 1 28.3931 12.949 0.4425 -0.896769 
1517 1 28.9704 13.9052 -0.945299 -0.326206 
2030 1 29.5957 13.0451 -0.591082 -0.806612 
1174 1 30.6566 13.18 0.435771 0.900057 
1896 1 31.7378 13.314 0.471661 0.88178 
1626 1 32.1804 12.3906 -0.41019 -0.912 
811 1 31.1036 12.2783 0.920751 -0.390151 
1197 1 32.7531 13.6163 -0.998755 0.0498849 
408 1 33.1714 12.5621 0.739738 -0.672895 
998 1 33.8278 13.5591 -0.915266 0.402851 
904 1 34.2456 12.6031 0.985431 0.170075 
753 1 35.4674 12.4688 -0.649205 0.760613 
1460 1 34.9788 13.5182 -0.575345 -0.817911 
29 1 35.9869 13.5704 0.548259 -0.836308 
133 1 25.6439 13.915 0.6029 0.797817 
137 1 24.6137 14.0664 0.524836 -0.851204 
15 1 25.0677 15.0016 -0.546205 0.837651 
12 1 26.0458 14.9074 0.461376 -0.887204 
177 1 26.7895 14.0075 -0.980726 -0.195388 
322 1 27.184 14.9334 0.976021 0.217677 
905 1 27.879 14.1186 0.545554 -0.838076 
403 1 28.3029 15.0173 -0.504335 0.863508 
368 1 29.3193 14.9148 0.431571 -0.902079 
1426 1 30.0957 14.0644 0.55108 -0.834453 
1191 1 30.4485 15.03 -0.992614 -0.121314 
1224 1 31.1925 14.3123 -0.244326 -0.969693 
198 1 32.1867 14.6957 0.964813 -0.262936 
460 1 33.3124 14.5502 -0.594184 -0.804329 
151 1 34.2153 15.4298 -0.846121 0.532991 
1091 1 33.0677 15.5547 -0.997515 0.0704508 
1387 1 34.4517 14.4461 -0.521186 -0.853443 
226 1 35.4299 14.5657 0.830193 -0.557476 
1748 1 24.8569 16.0566 -0.935426 0.353523 
658 1 25.7962 16.443 0.0806873 0.996739 
1381 1 25.1058 17.2925 0.387025 0.922069 
1168 1 26.5455 15.8256 0.988298 0.152538 
1856 1 26.7866 17.0285 -0.141326 -0.989963 
864 1 27.5811 16.0223 0.570726 -0.82114 
1665 1 27.9962 16.949 0.978656 0.205506 
1126 1 28.742 16.0633 -0.521577 0.853204 
628 1 29.1821 16.966 -0.49139 0.87094 
784 1 29.7104 15.9291 0.516552 -0.856256 
854 1 30.2226 16.8607 0.460943 -0.88743 
856 1 30.893 15.9242 -0.325911 0.945401 
1719 1 31.8524 15.637 0.716496 0.697591 
1276 1 31.4666 16.8153 -0.415705 0.9095 
374 1 32.4924 16.6654 0.502882 -0.864355 
1120 1 33.6159 16.3974 -0.478498 0.878089 
1788 1 34.6386 16.5275 0.25655 0.966531 
493 1 35.2282 15.757 -0.345155 -0.938546 
1061 1 35.8589 16.6682 0.998003 0.0631678 
1552 1 24.6375 18.2852 0.211448 -0.977389 
630 1 25.7517 18.7418 -0.572206 -0.82011 
679 1 26.0983 17.7111 0.26329 0.964717 
1786 1 27.3878 17.8398 0.999671 0.0256625 
311 1 26.7687 18.6786 0.517964 0.855402 
1728 1 28.5966 17.9996 -0.465367 -0.885118 
247 1 27.9865 18.8612 0.992593 -0.121487 
1957 1 29.2168 19.0228 -0.141659 -0.989915 
912 1 29.6303 17.9886 -0.868565 -0.495576 
959 1 30.3892 18.7558 -0.982082 0.188452 
623 1 30.7673 17.7461 0.999058 0.0434049 
1250 1 32.0437 17.784 -0.563724 -0.825963 
639 1 31.5654 18.7105 0.555263 0.831675 
1866 1 32.748 18.6877 -0.603675 -0.797231 
1006 1 33.0721 17.571 -0.608464 0.793581 
140 1 33.8045 18.6611 -0.50139 -0.865222 
1597 1 34.1041 17.4632 0.523012 0.852326 
1796 1 35.3228 17.5006 -0.999607 -0.0280178 
1588 1 34.9051 18.591 -0.657084 -0.753817 
973 1 35.9362 18.476 0.523341 0.852123 
836 1 25.2364 19.6309 0.474601 0.880201 
765 1 24.8573 20.6249 0.240882 -0.970554 
880 1 24.1825 19.8271 0.460683 -0.887565 
806 1 26.308 19.713 -0.529439 -0.848348 
1890 1 27.362 19.73 0.478844 0.8779 
345 1 25.9666 20.6555 0.559867 0.828583 
799 1 28.567 19.7851 -0.988943 -0.148295 
1492 1 29.2481 20.6466 0.996556 -0.0829171 
1437 1 30.025 19.7868 -0.932699 -0.360656 
1636 1 30.3949 20.7176 -0.671701 0.740823 
644 1 31.0777 19.6869 0.648657 -0.761081 
14 1 32.3186 19.6728 -0.999202 -0.0399393 
314 1 31.5174 20.6196 -0.606132 0.795364 
1917 1 32.7648 20.6172 -0.504652 0.863323 
1520 1 33.4486 19.681 -0.675658 -0.737216 
114 1 33.8756 20.6069 0.991276 0.131805 
42 1 34.455 19.5097 0.605756 0.79565 
438 1 35.5832 19.5425 -0.999262 0.0384101 
953 1 35.0567 20.5044 -0.97781 0.209495 
519 1 25.3341 21.5521 -0.629674 0.776859 
301 1 24.3049 21.813 0.989486 0.144629 
1605 1 26.9402 20.7473 0.402945 0.915224 
1489 1 26.422 21.7398 -0.341014 -0.940058 
748 1 27.486 21.7222 0.529622 0.848234 
1395 1 28.0333 20.795 0.671592 0.740921 
1464 1 28.7761 21.629 -0.473915 -0.880571 
910 1 29.8481 21.7248 0.66927 0.743019 
917 1 31.0274 21.7329 -0.998864 -0.0476532 
50 1 32.0705 21.5028 0.946494 -0.322722 
1645 1 33.3273 21.5601 -0.999924 0.012322 
499 1 35.1292 22.2392 0.999339 -0.0363511 
1346 1 34.5387 21.4291 -0.999966 -0.00830282 
585 1 35.6974 21.332 0.998911 0.0466471 
1848 1 25.4754 23.6893 -0.257285 -0.966336 
2006 1 24.8597 22.6664 -0.407294 0.913297 
1699 1 24.233 23.5489 -0.186156 0.98252 
237 1 25.9307 22.6243 0.496123 0.868252 
741 1 27.115 22.7439 -0.994943 0.100446 
182 1 26.5698 23.6594 -0.999369 -0.0355312 
1933 1 27.6528 23.5835 -0.467039 0.884237 
146 1 28.7071 23.6626 0.476907 -0.878954 
149 1 28.2767 22.5419 0.212331 0.977198 
1860 1 29.3179 22.662 0.296187 0.95513 
797 1 30.5245 22.7185 -0.952277 0.305234 
1931 1 29.9093 23.648 -0.979408 -0.20189 
124 1 31.6117 22.566 0.989388 -0.145296 
1526 1 31.1781 23.4828 0.317436 0.94828 
678 1 32.3139 23.5537 -0.996243 0.0865981 
1812 1 33.8654 22.4743 0.98161 -0.190897 
400 1 32.7079 22.5791 -0.659287 -0.751892 
1335 1 33.4581 23.3845 -0.993225 0.116204 
228 1 34.5931 23.2493 0.996634 -0.0819772 
1493 1 35.8431 23.1487 -0.572841 -0.819667 
1965 1 35.3824 24.1214 -0.437375 -0.899279 
1742 1 24.8298 24.5996 -0.157321 -0.987548 
256 1 25.4128 25.579 -0.433781 -0.901018 
1478 1 25.9851 24.7125 -0.507263 -0.861791 
1470 1 27.0961 24.6243 -0.521963 0.852968 
550 1 26.4039 25.8078 0.885614 -0.464421 
1643 1 28.0892 24.5816 0.428918 -0.903343 
1883 1 28.726 25.3944 0.96719 -0.254053 
43 1 27.5917 25.6224 -0.98204 0.188674 
1167 1 29.3262 24.5394 0.993808 -0.111108 
1994 1 30.4996 24.4878 0.988863 -0.148829 
949 1 29.9866 25.4247 0.974765 -0.223232 
1209 1 31.2239 25.4864 -0.977579 0.210568 
711 1 31.7031 24.5293 -0.356949 -0.934124 
1272 1 32.4464 25.3679 -0.993069 0.117529 
1017 1 32.9169 24.4369 0.994593 -0.103847 
1441 1 33.7737 25.1719 -0.982832 0.184505 
603 1 34.1262 24.2121 0.968087 -0.250614 
45 1 34.8941 25.0448 -0.994225 0.107318 
448 1 35.6162 25.7751 -0.257727 0.966218 
181 1 24.7312 26.4526 0.337726 -0.941245 
1482 1 25.2135 27.4495 -0.942236 -0.33495 
223 1 26.0777 26.844 -0.996325 0.0856575 
471 1 27.2987 26.662 -0.987613 0.156911 
1356 1 28.4001 26.3598 0.615052 0.788486 
563 1 29.0886 27.3205 0.431522 0.902102 
1235 1 28.0876 27.3961 -0.604973 -0.796246 
409 1 29.537 26.4503 -0.224543 -0.974464 
707 1 30.6753 26.4696 -0.575418 -0.81786 
1025 1 30.2766 27.4097 -0.978811 0.204766 
1446 1 31.823 26.3226 0.974676 -0.22362 
1688 1 31.5351 27.3128 -0.939277 0.34316 
1805 1 32.7254 26.9959 0.59292 0.805261 
1124 1 33.1833 26.0966 0.999086 0.0427358 
1187 1 33.9133 26.9655 -0.989293 0.145944 
1906 1 34.3646 26.0551 0.997127 -0.0757525 
720 1 35.1114 26.8205 0.998315 -0.0580343 
710 1 24.7701 28.5115 -0.32389 0.946095 
1207 1 25.8479 28.2439 -0.125553 0.992087 
139 1 26.7307 27.6605 0.109991 -0.993933 
1022 1 26.945 29.1783 -0.999947 0.0102886 
202 1 27.5113 28.336 0.969319 -0.245805 
934 1 28.7194 28.3656 -0.871357 0.490649 
824 1 29.7429 28.4749 -0.984827 0.173537 
1490 1 30.4369 29.1958 0.968303 -0.249778 
1503 1 31.0984 28.284 -0.990751 0.135694 
1811 1 32.267 28.0432 0.983836 -0.179073 
93 1 31.7856 29.0428 0.965563 -0.26017 
1002 1 32.9413 28.9085 -0.99969 0.0249141 
808 1 33.3725 27.953 0.406654 -0.913582 
992 1 34.0658 28.7136 -0.99342 0.114528 
1449 1 34.508 27.7503 0.99982 0.0189866 
1767 1 35.7487 27.7346 -0.551019 -0.834492 
759 1 35.2873 28.6714 -0.988355 0.152165 
1613 1 25.6235 29.3312 0.641571 0.767063 
1945 1 25.0136 30.3211 1 0.000749131 
1451 1 24.4088 29.4994 -0.999948 -0.0102172 
1331 1 26.307 30.3908 -0.220018 0.975496 
1863 1 27.329 30.1447 0.949486 0.31381 
1067 1 28.0782 29.3608 -0.433617 0.901097 
884 1 29.2147 30.4962 -0.861198 -0.508269 
1357 1 28.2055 30.9579 0.195105 -0.980782 
643 1 29.1028 29.4132 0.643803 -0.765191 
1422 1 30.2029 30.1679 0.724397 0.689383 
1215 1 30.9384 30.9816 -0.721506 -0.692408 
1214 1 31.3428 29.9445 -0.99614 0.0877744 
1718 1 32.4222 29.948 -0.494309 -0.869286 
1287 1 32.0103 30.8584 0.593309 0.804975 