ITEM: TIMESTEP
0
ITEM: NUMBER OF ATOMS
1000
ITEM: BOX BOUNDS pp pp pp
0.0000000000000000e+00 9.4103600000000007e+00
0.0000000000000000e+00 9.4103600000000007e+00
0.0000000000000000e+00 9.4103600000000007e+00
ITEM: ATOMS id type x y z vx vy vz 
256 1 1.28482 1.0562 1.01485 0.601402 0.348378 -0.67855 
343 1 0.307315 0.67534 1.22745 -0.391124 0.23968 0.92186 
277 1 0.206178 0.157855 0.336911 0.862913 0.180141 0.254168 
929 2 1.01458 0.556599 0.310956 -0.181502 0.979304 -0.563886 
762 1 0.458684 1.30375 0.397715 0.210972 -0.289721 0.191468 
540 1 1.90583 0.341417 0.432808 -0.146573 -0.137385 -0.259804 
178 1 2.3494 1.15811 0.887688 -0.597487 0.254136 0.0590245 
713 1 2.81081 0.0719763 0.98269 -0.132312 -0.202586 0.645567 
182 1 3.04924 0.335732 0.0233078 0.739568 1.14479 0.944514 
604 1 1.96815 0.430333 1.54144 -1.38996 -0.155337 0.406679 
331 1 3.50929 0.857346 0.909554 0.461459 0.219911 -0.267106 
687 1 4.53556 1.26109 0.616557 -0.423245 1.10589 -0.444917 
583 1 4.4391 0.490553 1.34765 0.241785 0.861376 -0.0685071 
837 2 4.28526 0.469163 0.0375313 -0.549654 -0.264058 1.01146 
501 1 5.46552 1.02887 1.26038 -0.403475 0.851555 0.263156 
218 1 5.40449 0.699564 0.148949 -0.684847 0.65451 0.218645 
245 1 6.11821 0.274969 0.994864 1.19579 -0.855171 1.17277 
847 2 6.19806 1.03274 0.616273 -0.150094 -0.591756 0.78783 
47 1 7.12503 0.654387 0.597858 0.339373 0.686838 0.434393 
43 1 6.63255 1.22067 1.33581 1.00932 0.687151 0.577607 
134 1 7.91473 1.26866 0.511354 0.845193 -0.0664127 -0.580487 
789 1 8.12176 0.193096 0.935557 -1.241 -1.08843 0.353932 
630 1 8.78383 0.747476 0.452099 0.419027 -0.283454 1.11334 
975 2 8.58232 1.30565 1.18691 -1.34397 0.175676 0.0791103 
168 1 0.170069 2.60039 0.702647 0.338195 -0.13274 -1.27472 
484 1 0.774241 2.52457 1.53952 0.663561 -0.0666931 0.0483597 
835 2 0.883323 1.89653 0.968376 0.36499 0.286324 -0.675307 
712 1 1.26525 2.2992 0.195751 -0.000778082 0.386668 0.392436 
427 1 1.73905 1.99798 1.16794 -0.125594 0.114792 0.454335 
534 1 2.20479 2.75091 0.403849 0.78787 1.41801 -0.0455265 
861 2 2.06279 1.797 0.351276 -0.699392 0.160936 -0.0390659 
336 1 2.83805 2.07076 0.707275 0.488503 0.765615 1.41538 
5 1 1.89703 3.01533 1.37793 -0.324443 0.255329 0.153942 
955 2 2.71053 2.85265 1.15562 -0.357762 -0.594065 0.741982 
950 2 4.34413 2.03786 1.15506 0.626842 -0.306073 -0.311076 
674 1 3.61359 2.75171 1.21415 0.346463 0.106569 0.536611 
709 1 3.89111 2.11714 0.369244 -0.582218 0.966866 -0.0141196 
730 1 3.26254 2.97546 0.242332 -0.985855 1.03476 -0.355289 
761 1 4.4706 2.94844 0.639838 0.297113 -0.10644 0.616199 
353 1 5.79963 1.70968 0.299761 -0.884874 -0.580246 -0.140395 
29 1 5.14951 2.04463 0.986247 -0.375606 0.24137 0.193868 
500 1 5.57486 2.7867 0.319921 0.0878887 0.263084 0.623468 
560 1 5.3371 2.98463 1.32463 -0.240206 0.603796 -1.0306 
115 1 6.23476 2.17885 1.10157 0.0983083 -0.173151 0.655459 
348 1 6.87034 1.65759 0.354409 0.142015 -0.162589 -0.822383 
928 2 7.06691 2.5254 0.607537 -0.0523562 -0.93577 0.468165 
196 1 7.46826 2.08004 1.20801 0.217613 0.791131 0.880958 
718 1 6.53441 3.1206 0.907731 0.234771 -0.0628955 -0.602854 
190 1 9.34359 1.71565 1.28412 0.206752 -0.395605 0.166941 
404 1 7.91619 2.52468 0.315075 -0.476368 0.74544 -0.181691 
328 1 8.92268 1.7597 0.285198 0.307857 -0.350698 -0.354316 
238 1 8.46295 2.22991 1.14551 1.01303 0.0320208 0.329046 
478 1 1.0825 3.42315 0.72089 0.0792025 -0.723104 0.435693 
480 1 0.0019464 3.62561 0.446854 0.505275 0.320613 0.336736 
30 1 1.00475 4.2792 1.47225 -0.264631 -0.426495 -0.0838286 
734 1 0.294129 3.53216 1.47987 -0.666495 -0.813209 -0.223871 
260 1 0.639048 4.38667 0.0492675 -0.0143158 0.124115 -0.255326 
220 1 1.67449 4.19072 0.199058 -0.293011 0.204547 0.548006 
96 1 2.49398 3.68529 0.934593 0.296939 0.472284 -0.312057 
727 1 1.88789 4.64558 1.14239 -0.878722 -0.747553 -0.258949 
908 2 1.69513 3.84098 1.18129 0.54252 -0.122286 1.06567 
968 2 2.49665 4.52864 0.354737 0.0159252 0.339753 0.177745 
852 2 2.72764 4.41209 1.30298 0.127134 0.148147 0.443583 
110 1 3.50283 3.77639 0.916553 0.324043 0.238637 -1.22266 
607 1 4.20638 3.802 0.123914 -0.262457 -0.411322 -0.056566 
303 1 4.36726 3.50805 1.45829 0.800463 -0.402898 0.421181 
770 1 3.51957 4.61527 1.48354 -0.357103 0.682616 0.49046 
390 1 4.47961 4.63858 0.972036 -0.173936 -0.470552 -0.191726 
556 1 3.39716 4.55569 0.248093 -0.299007 0.365169 -0.0302244 
437 1 5.09512 3.78646 0.692826 1.08211 -1.18839 0.540256 
15 1 6.0935 3.62685 0.100707 0.105294 0.293175 -1.36568 
76 1 6.18113 4.19952 0.970634 -0.288697 0.939866 -0.115694 
821 2 6.0283 3.51619 1.50664 0.0521921 1.0188 0.147034 
773 1 7.63041 3.17275 1.16251 -1.25006 1.05422 -0.00322572 
986 2 7.11272 3.92475 0.910738 0.975462 0.14469 0.284719 
778 1 7.2427 3.34409 0.242855 -1.17267 0.412123 -0.82294 
316 1 6.75181 4.43159 0.131807 0.73866 -0.649094 0.0661046 
796 1 7.96859 4.03705 0.700525 0.703267 0.876291 -0.270078 
467 1 8.65616 3.23225 1.02022 0.512579 0.604186 1.03865 
129 1 8.83505 4.21995 1.3354 -1.28071 -0.566939 -1.5367 
73 1 8.87194 4.45145 0.326075 0.153204 -0.754871 -0.416394 
645 1 0.307036 4.83149 0.943173 0.719651 -0.0828978 0.0144267 
891 2 1.18363 4.86512 0.629196 0.437803 -0.566926 0.124826 
63 1 0.742564 5.55843 0.301779 0.746079 -0.981175 0.187514 
372 1 1.2109 5.43469 1.2741 0.682015 0.791422 -0.706637 
967 2 0.542945 6.06488 1.0952 0.923933 -0.170893 0.498857 
294 1 2.88846 5.2076 0.92183 -0.379134 0.917093 -0.564908 
899 2 2.15356 5.91956 0.83981 -0.421117 -0.366928 0.205306 
217 1 2.8071 5.97456 0.175373 0.98272 -0.499026 0.0192726 
400 1 1.90335 5.30106 0.28874 0.0864689 0.459411 0.013119 
744 1 3.12125 6.14455 1.23597 0.053072 0.579782 -0.539052 
170 1 3.80683 5.51759 0.501411 -0.687388 1.92371 -0.597273 
21 1 3.91523 5.52627 1.53767 -0.356451 -1.05234 -0.322523 
606 1 5.68451 4.72454 0.222104 0.258047 -0.295638 -0.252846 
876 2 5.76142 5.62488 0.225899 -0.62065 -0.00500923 -0.328644 
179 1 5.7049 6.01801 1.15119 0.769923 0.388317 -0.0873816 
658 1 4.82844 5.71096 0.601928 0.141494 -0.440899 -0.674336 
299 1 5.52953 4.96526 1.29319 1.07462 -0.800026 -0.50798 
78 1 7.26106 4.71516 1.03983 0.65643 0.344943 -0.675735 
37 1 6.5005 5.40282 0.637676 -0.712097 -0.204814 -0.368492 
28 1 7.50863 5.59902 0.315307 -0.490019 -1.42606 -0.722657 
581 1 6.71545 6.10587 1.49632 -0.398582 -0.765233 1.15693 
207 1 7.55167 5.56106 1.52332 0.64178 -0.000771031 -0.596848 
889 2 6.90908 6.18641 0.61484 0.262796 0.653594 0.149954 
132 1 9.16815 5.70263 0.927258 1.22486 0.541607 0.278612 
715 1 8.25472 5.10602 0.922879 -0.228131 0.177126 -0.288843 
850 2 9.39912 5.09175 0.164569 0.974078 0.423845 -0.681224 
827 2 8.38759 5.99678 0.76706 -0.815689 -0.892739 0.00782895 
230 1 1.34355 6.43803 1.04235 0.38841 0.08222 0.155149 
204 1 0.174758 6.48285 0.314791 -0.0729521 -0.277767 -0.784845 
203 1 0.439427 6.96444 1.30859 0.276784 -0.0498678 -0.522393 
254 1 1.00724 7.08578 0.277301 -0.392433 0.427492 -0.659965 
853 2 0.784638 7.66268 0.932468 -0.360887 -0.207936 -0.856294 
75 1 1.72816 7.57742 1.04224 0.890847 0.140722 -0.118554 
702 1 1.74333 6.34579 0.0690595 1.01879 0.535503 -0.485216 
201 1 2.39901 6.78888 0.795582 -0.203355 -0.336932 -0.00442221 
933 2 2.55095 7.56118 1.31898 0.0200522 0.281429 -0.563492 
445 1 2.7752 7.75672 0.41855 -0.808 -0.491936 -0.977277 
642 1 3.61686 6.98092 0.0985192 -0.521396 0.200012 0.430726 
407 1 4.16358 6.52774 0.936194 -0.113646 -0.206788 -0.365194 
453 1 4.57238 7.39454 0.322703 -0.0831344 -0.943394 0.0498562 
161 1 4.42079 7.57494 1.29886 0.080542 0.0385063 1.52319 
468 1 3.35159 7.25 1.06007 0.3415 0.3186 -0.0770219 
631 1 5.8107 6.438 0.17543 0.145928 -0.167301 0.812351 
946 2 4.95134 6.47696 0.253064 0.688632 -1.18592 0.471877 
757 1 5.26206 6.98564 0.962309 -0.457109 -0.960571 0.22978 
99 1 5.75725 7.80586 0.400948 0.0802198 -0.906811 0.673607 
905 2 6.06192 6.73 1.54363 -0.452039 -0.877609 0.893322 
781 1 6.4458 6.94878 0.810535 0.332341 -1.19389 -0.316623 
34 1 7.29844 7.51314 0.680852 -0.4506 -0.241019 0.37142 
548 1 7.61059 6.47622 1.05754 -0.191777 0.115273 -0.546785 
174 1 8.48844 6.47924 0.0634342 1.05316 0.0794895 -0.329616 
285 1 9.29505 7.58136 0.332902 -0.19854 0.199529 1.2214 
938 2 8.06909 7.17081 0.873502 -0.523511 -0.933052 -0.732517 
233 1 8.19316 7.44061 0.0400282 0.17024 0.793587 -0.389774 
577 1 8.85126 6.81848 1.00491 -0.0680591 -0.141757 0.907 
576 1 1.08355 9.33566 0.990976 -0.40137 0.268357 -0.0042364 
869 2 0.390474 8.74309 0.829894 0.633044 -0.494983 0.540789 
519 1 1.12965 8.3724 1.23014 0.369622 -0.126745 1.1006 
772 1 0.942452 8.17759 0.260233 0.151885 0.0618221 -0.662826 
411 1 0.0670196 8.08021 1.27646 0.840338 -0.329712 0.589489 
629 1 0.0182047 8.57478 0.0475186 -1.70076 -0.180586 -0.390361 
389 1 1.82129 8.6486 0.43956 0.175426 -0.31652 -0.473996 
579 1 2.4743 8.41095 1.14327 -0.461232 0.00349748 -0.344077 
360 1 2.87268 8.77566 0.244459 1.36089 -0.832757 0.684329 
919 2 1.94439 9.14694 1.08652 -0.494327 -0.619997 -0.117832 
898 2 3.85899 7.86439 0.694605 0.598511 -0.587023 -0.127161 
332 1 3.93133 9.24245 0.64691 -1.93833 0.0790779 0.410742 
787 1 3.54029 8.46408 1.1749 -0.439696 0.654245 0.490143 
143 1 4.61941 8.37761 0.623555 -0.790512 0.14883 0.494296 
755 1 4.4747 8.8146 1.54739 -0.901746 0.298951 0.446512 
105 1 3.82401 8.39059 0.0140336 1.16993 1.35515 -0.0340774 
106 1 5.06793 9.33621 0.734022 -0.79902 0.227909 0.00339149 
471 1 5.80597 8.6449 1.05276 0.565882 0.341772 -0.836398 
810 2 5.3445 8.55891 0.0925295 0.558139 0.222909 -0.0130991 
650 1 6.01457 9.08898 0.202569 0.662547 -0.48838 -0.44835 
937 2 5.25361 8.03597 1.40216 0.686211 0.625713 0.132917 
609 1 6.5748 8.03276 1.21187 0.455832 0.0426892 0.427249 
914 2 6.58183 8.3954 0.407461 0.183669 -0.242369 0.765874 
429 1 7.76964 8.43349 0.370177 0.922743 -0.688516 1.01321 
356 1 7.15072 8.90743 1.03669 -0.0346491 0.976522 -0.20046 
197 1 7.05729 9.1785 0.025044 0.650446 0.629544 0.216095 
828 2 8.18628 8.62298 1.11954 0.5479 -0.369829 0.387895 
873 2 8.63509 8.17219 0.188566 -0.387092 0.413431 0.868887 
315 1 8.50458 7.86566 1.00401 0.626575 -0.524261 -0.255078 
765 1 9.05338 9.04067 1.00997 -0.290535 0.463943 0.873266 
10 1 8.54755 9.05573 0.0196558 0.357124 0.545446 -1.13895 
227 1 1.06488 0.451227 1.92721 -0.244572 -0.280652 0.807238 
794 1 0.799863 1.13838 2.9541 0.483859 -0.184512 0.14223 
279 1 0.343021 0.141527 2.71187 -0.0897046 -0.116021 0.267177 
226 1 1.42779 0.211286 2.86471 -0.298644 1.27078 0.137126 
469 1 0.722795 1.55398 1.8396 -0.433563 -0.585521 -0.504406 
413 1 2.81359 1.10586 1.94661 0.367397 1.45228 -0.865959 
117 1 1.75209 1.30867 2.20587 -0.207988 0.203053 1.20919 
56 1 2.37707 0.19444 2.49933 -0.0537322 0.230481 0.0730979 
636 1 3.36248 0.601391 2.83227 0.662438 0.27705 -0.704882 
956 2 3.90333 1.00162 2.123 0.599206 -0.320805 1.03382 
401 1 4.35088 0.383233 2.44956 0.162293 -0.266307 0.0723348 
296 1 4.38587 1.48831 2.83724 -1.20483 -0.22261 0.0938875 
195 1 4.68697 1.44135 1.79628 0.64966 0.738969 0.276775 
374 1 3.49196 0.291213 1.83274 1.00681 0.75645 0.375456 
156 1 6.22575 0.564551 2.01973 0.633493 0.495603 0.039457 
206 1 5.29112 0.886209 2.3546 -0.140533 -0.0436333 0.945989 
497 1 6.06948 1.19267 2.93369 -1.22058 -0.815283 -0.392768 
714 1 5.21763 0.0335697 1.80952 0.0457299 -0.60979 0.227217 
983 2 6.78764 0.455431 2.76362 0.345868 -0.210708 -1.1337 
397 1 7.21986 0.258979 1.76991 -0.00912465 -0.333076 0.629261 
216 1 7.06698 1.13558 2.35414 -0.508104 0.480472 -1.12796 
242 1 7.64051 0.203311 2.70548 -0.669329 -0.146149 1.36117 
391 1 8.82452 0.551933 1.57074 0.194712 0.307929 -0.420395 
323 1 7.85064 1.1499 1.57216 0.407343 -0.019785 0.506957 
240 1 9.28671 1.06987 2.36776 -0.735547 -0.278753 0.1078 
214 1 8.18946 1.15871 2.7672 -0.134969 -0.0833477 -0.128584 
994 2 8.12853 0.503028 2.07707 0.708406 -0.117427 -0.11569 
544 1 8.74871 0.270359 2.63171 0.0944205 0.968688 0.615552 
1 1 0.583407 2.30967 2.62541 0.838465 0.238705 -0.0768331 
854 2 1.33078 1.84217 2.79562 -0.338766 0.261305 0.593666 
430 1 1.6412 2.34989 2.14437 -0.193486 0.121091 -0.542747 
524 1 2.60923 2.08335 1.70258 -0.547592 1.17469 -0.139917 
181 1 2.27712 1.97492 2.83074 -0.505333 -0.0720254 -0.474593 
394 1 2.42579 2.98527 2.57585 -0.0548196 0.557992 -0.133606 
542 1 3.62886 1.75056 1.60475 0.550119 -0.407853 0.508533 
732 1 3.33848 2.58746 2.17888 -0.28923 -0.0297179 0.248947 
461 1 4.31334 2.46613 1.90825 0.266265 -0.95518 -0.0687963 
199 1 3.35519 1.62205 2.68093 -0.215987 -0.744713 -0.464768 
742 1 4.16474 2.60137 2.90666 0.134399 0.434945 -0.991702 
382 1 5.87872 1.64817 2.00321 -0.442481 -1.40303 1.0472 
803 2 5.21925 2.22255 1.86814 0.221955 0.268665 0.637639 
231 1 5.24811 2.11543 2.76256 -0.990746 -0.0294632 -0.40304 
48 1 5.89087 2.6503 2.11633 0.149619 -0.249397 -1.03061 
488 1 5.86097 3.10729 3.05909 -0.060538 -0.336088 -1.02156 
807 2 5.00283 2.92285 3.11224 1.15192 -0.160191 -0.168475 
822 2 6.77594 1.8903 1.752 -0.229823 -0.0951295 0.513415 
212 1 7.2959 2.84065 2.95471 -0.00407364 -0.0793658 -0.474307 
588 1 7.55417 1.9819 2.21619 0.622141 1.3236 0.142463 
364 1 6.50088 2.07764 2.67538 0.0597746 -0.634919 -0.460074 
652 1 6.90827 2.75672 1.85904 0.0111355 0.693751 0.239242 
302 1 8.20326 2.83437 2.05964 -0.933627 0.818095 0.506924 
149 1 9.17411 2.65247 1.82899 -0.0917297 0.516844 -0.099037 
509 1 8.57876 1.72757 2.04823 -0.726192 -0.259641 -1.1482 
699 1 8.2699 2.19419 3.02147 -1.04252 0.343098 0.654909 
120 1 9.06238 2.87307 2.906 0.347536 -0.78627 0.153467 
855 2 0.196329 4.36131 1.72001 -0.676242 0.556822 -0.625674 
418 1 0.6444 3.25759 3.09772 0.690089 -0.199898 0.434369 
165 1 0.625563 4.1714 2.60775 0.832374 0.764368 0.430386 
84 1 1.16284 3.39133 2.07114 0.015736 -0.366089 -0.0615911 
717 1 1.51215 3.76028 3.01628 0.0669298 -0.174171 -0.260375 
723 1 2.08785 3.84827 1.91835 -0.00529243 -0.255995 -0.713215 
65 1 2.43537 4.0818 2.84272 0.741148 -0.218501 0.0884047 
780 1 3.07787 3.48579 1.7663 -0.749028 0.345442 -0.969255 
915 2 3.07743 4.28988 2.32624 0.115418 -0.178434 0.0837885 
46 1 1.58134 4.63815 2.28789 -0.280701 -0.123912 0.908059 
894 2 3.94287 3.23993 2.16273 -0.121319 0.184788 -0.43941 
253 1 3.32774 3.45043 2.78338 -0.397157 0.119082 -0.668502 
318 1 3.898 4.06085 2.23719 -0.111827 0.609569 -0.204189 
957 2 4.33267 4.57548 2.80369 -0.326005 -0.0915352 0.663776 
436 1 4.59773 4.69224 1.96054 -0.183169 -0.67802 -0.085459 
222 1 4.92658 3.24971 2.31451 -1.38487 0.985669 -0.572657 
767 1 5.23127 4.01896 1.67675 0.56065 -0.907057 0.568895 
580 1 5.14933 4.23506 2.79798 0.524424 0.324473 0.438513 
83 1 5.97108 3.80721 2.35285 0.36126 -0.582678 -0.00496557 
841 2 7.46975 3.34313 2.23013 -1.06137 0.413638 1.06306 
610 1 6.913 3.82233 1.74516 -0.0896439 -0.306451 -1.16368 
365 1 7.17917 3.91074 2.76575 0.0731906 -1.26554 -0.283278 
921 2 6.55809 3.14674 2.53393 -1.17449 0.244815 0.340311 
171 1 7.36569 4.69511 2.12138 0.323779 0.410768 0.308617 
995 2 9.36865 3.72828 3.00938 0.0916245 -1.7695 -0.491627 
587 1 7.99247 3.91383 1.78127 -0.573377 -0.0402497 0.674699 
399 1 8.21885 3.53906 2.89914 -0.953414 -0.732916 0.0668382 
595 1 8.96363 3.7259 2.27609 1.52268 0.272668 0.222411 
420 1 8.42502 4.57777 2.46718 -0.617716 -0.900029 0.467916 
707 1 0.615552 5.14282 2.00943 -0.868566 0.187125 -1.40777 
555 1 1.17187 6.03519 2.16118 -0.579735 0.410968 -0.167728 
158 1 0.931754 5.04119 3.05329 -0.388223 -0.00607721 -0.833631 
283 1 0.378013 5.93968 3.06432 0.262671 0.736977 0.407656 
726 1 0.136725 6.0748 1.84748 -0.227312 -0.310011 -0.227874 
3 1 2.08325 5.87097 1.67373 0.625516 -0.729405 0.113732 
183 1 2.58672 4.89677 2.01252 0.109568 -0.252918 -1.24671 
385 1 2.84998 5.19299 3.06063 0.504591 -0.0376544 -0.079506 
626 1 1.94873 5.54229 2.75722 1.02402 -0.742761 0.140355 
379 1 3.00375 6.00724 2.21928 0.408073 0.104455 -0.472528 
248 1 3.63001 5.12433 2.42076 0.457922 -0.669506 -1.60084 
454 1 3.66577 6.02347 3.02189 -0.886514 -0.568055 0.391686 
805 2 4.35972 6.16259 2.46995 0.350732 0.321319 -0.471752 
446 1 4.56362 5.38436 2.77682 -0.611349 -1.76551 0.302614 
434 1 4.86995 5.7134 1.78133 0.539564 -0.15894 0.711645 
844 2 5.53392 4.71357 2.17501 -0.272955 -0.557311 -1.13986 
321 1 5.83923 5.743 2.16003 -0.352173 -0.333505 -0.45178 
229 1 5.28518 6.25229 2.85494 -0.167169 -0.0434492 -0.993091 
198 1 5.52835 5.13434 3.05835 -0.988877 -0.379318 -0.271575 
141 1 6.4095 4.7088 2.60542 0.542093 0.656978 -0.891731 
72 1 6.47025 5.00657 1.58688 0.414369 0.184017 0.166068 
571 1 6.94846 5.62524 2.44674 0.411143 0.430363 -0.0395423 
963 2 7.33754 4.89413 2.94011 -0.318681 0.120933 0.599251 
31 1 9.33154 5.02966 2.73719 -0.235923 -0.257654 0.771938 
867 2 8.06571 4.78845 1.64778 0.0932563 0.798613 1.59496 
126 1 8.9477 5.15691 1.75793 0.663534 0.306843 0.102153 
753 1 8.04551 5.5753 2.48063 0.582565 0.694557 1.23686 
845 2 8.94616 5.74725 2.40224 -0.486867 -1.00665 0.346993 
458 1 8.48255 6.11594 1.67893 1.14265 0.688705 -0.0942554 
736 1 0.541713 6.89682 2.48083 -0.956021 -0.167487 0.232356 
790 1 1.44969 7.5126 2.90668 -0.06921 0.190327 0.388814 
335 1 1.38885 7.02497 1.90876 0.396247 -0.763004 -1.11687 
795 1 0.144308 7.81901 2.96177 -0.0463253 -1.1217 -0.0852146 
785 1 2.48028 7.58485 2.82998 0.318425 -1.02116 0.0696049 
681 1 2.70699 6.92806 1.85665 -0.891029 -1.14723 -0.873502 
58 1 2.17671 6.55481 2.68069 0.522831 -0.845674 -0.0573682 
634 1 3.20342 7.79871 1.95567 0.192495 0.131398 0.726604 
741 1 3.3282 6.99524 2.75878 -0.372312 0.68043 0.0323297 
539 1 3.92399 6.6885 1.93759 -0.24706 0.510161 1.05955 
338 1 3.89263 7.82754 2.74163 0.372321 0.701093 0.168841 
314 1 4.50665 6.93264 2.76032 0.0128536 0.496386 -0.504846 
173 1 5.03222 6.72507 1.91167 0.27195 0.234248 1.12952 
310 1 5.52626 7.28111 2.99089 0.499999 0.519463 -0.420923 
4 1 5.80002 7.51651 1.844 0.264832 -0.724632 -0.814758 
819 2 6.25215 7.49307 2.56574 -0.260583 0.193048 -1.75634 
286 1 4.8751 7.83656 2.26306 -0.928009 -0.317219 -0.952923 
135 1 6.91162 7.21256 1.65119 0.672457 0.617562 -0.537243 
406 1 7.55199 6.43995 2.11471 0.244986 0.407468 -0.951865 
594 1 6.34901 6.68727 2.34754 0.85317 -0.00866186 -0.281963 
896 2 7.07224 6.47817 2.8512 -0.589042 0.254826 -0.531504 
269 1 7.27409 7.30539 2.56496 -0.28878 1.13214 0.174225 
252 1 8.08052 7.18866 1.74382 1.18127 1.02912 0.0159659 
685 1 8.8941 6.52515 2.81199 -0.543572 1.2549 -0.444536 
160 1 8.40129 7.41114 2.81593 0.391178 0.524488 -0.279052 
605 1 9.06668 7.31413 1.96602 -0.811768 -0.401694 0.238387 
647 1 0.785662 7.91916 2.07031 -0.772916 0.290297 1.53968 
654 1 0.448307 8.93237 1.83218 0.237603 0.363063 0.436271 
274 1 0.883464 8.70026 2.76321 0.778918 -1.6934 1.07567 
313 1 1.69349 8.9634 1.91126 1.60568 -0.71443 -0.146096 
664 1 1.9718 7.99038 1.99432 -0.622282 -0.685249 -0.495022 
997 2 2.88396 8.36658 2.63082 1.00701 -0.936993 -0.0350616 
358 1 2.79308 8.84836 1.95986 0.28429 0.235925 -0.381077 
177 1 2.03297 8.60516 2.87873 0.119222 0.859187 0.288219 
884 2 4.11843 8.11519 1.89467 -0.382512 -0.591406 0.817821 
39 1 3.74596 8.76328 2.37318 1.87365 -1.33144 -0.60275 
614 1 4.79415 8.85108 2.56638 -0.466559 0.071381 -1.02255 
235 1 5.85568 9.35315 2.81574 -0.715577 0.367292 0.877594 
489 1 5.62198 8.49179 2.10254 -0.318155 -0.471474 0.0737996 
359 1 6.03682 8.21713 3.03248 0.00469935 0.247 0.627219 
147 1 7.54896 8.13288 1.73115 -0.347306 -0.297117 0.253304 
667 1 6.47274 8.99929 1.82572 -0.332502 1.40673 0.575638 
516 1 6.73396 8.12214 2.28149 0.361073 -0.191257 0.223011 
833 2 7.24809 8.85539 2.10078 0.179712 -0.159047 -1.00917 
710 1 7.58788 8.34755 2.74691 -0.00754431 0.158015 -1.26362 
239 1 6.76899 9.02154 2.92043 -0.255199 -0.338889 0.0785126 
543 1 8.13643 9.06122 1.87767 -0.575275 0.411756 -0.49664 
66 1 9.18396 8.70601 2.63382 0.508407 0.0983711 0.350175 
613 1 8.49163 8.11587 2.02941 0.330278 0.869633 -1.25402 
943 2 8.29119 8.94648 2.74015 0.410873 0.531889 0.297411 
862 2 9.01531 9.10561 1.92285 0.540455 -0.650778 -1.58434 
731 1 0.646211 1.11072 4.00964 -0.609929 0.516279 1.05902 
493 1 0.606388 0.134751 3.71063 1.29399 -0.779164 0.0580567 
376 1 2.30663 0.962791 3.14417 0.153074 0.258629 0.32425 
777 1 1.5759 0.480985 3.84674 -0.640369 0.298697 0.0553713 
572 1 2.66075 0.363535 3.95747 0.111064 -0.784085 -0.807858 
510 1 2.2168 1.31403 4.2084 0.369835 0.489763 -0.241976 
257 1 3.09284 1.46923 3.69648 0.806149 0.242252 -0.3959 
872 2 4.00809 0.191369 3.21522 0.0624761 -0.443949 -0.224716 
14 1 4.02354 0.912002 3.75978 -0.249125 -0.306042 -0.541542 
388 1 3.46781 1.13047 4.52495 -0.1297 -0.373291 -1.27595 
574 1 4.66225 0.0131584 4.26807 0.26317 0.531104 -0.153953 
97 1 4.9348 0.291611 3.29353 0.208305 -0.0157414 0.228303 
301 1 5.69796 0.481083 4.18343 -0.0499491 -0.221429 -0.227726 
191 1 5.22768 1.31146 3.58636 0.120039 0.174856 0.691892 
208 1 4.82459 1.0103 4.6062 0.439805 -0.406495 -1.60892 
584 1 6.09133 1.48147 4.05955 -1.60145 0.448457 -1.13375 
375 1 7.43722 0.748731 3.58669 -0.268614 0.142319 0.966888 
333 1 6.43954 0.486119 3.53777 0.888016 -0.368276 0.435628 
996 2 6.51606 0.797238 4.48877 0.768345 0.191592 -0.626611 
973 2 6.69736 1.32227 3.48235 -0.54164 -0.218887 -0.136159 
728 1 7.10939 0.0104075 4.21721 0.555167 0.240086 0.196324 
52 1 9.17205 0.976702 4.54721 -0.0530912 0.0271468 0.197737 
878 2 8.35943 0.430159 3.42166 -0.0339488 -0.298729 0.513927 
749 1 8.17596 0.601168 4.36801 -0.329389 1.29009 0.318459 
101 1 9.12954 0.778882 3.4981 -0.123119 0.261165 0.642065 
554 1 8.32099 1.41543 3.79211 0.564091 -0.662592 -0.848699 
926 2 7.92028 1.47143 4.58528 0.633016 -0.84017 0.0197118 
26 1 0.569806 2.3315 3.73513 0.672627 -0.567376 1.76227 
85 1 1.37289 2.35937 4.36909 0.918289 0.493893 0.861435 
520 1 1.5164 1.5817 3.57586 -0.127794 0.0859603 -0.549974 
477 1 1.59824 2.61085 3.32888 0.375284 0.349264 0.877178 
304 1 2.37925 2.3076 3.98095 -0.0955233 -0.053518 0.506994 
673 1 3.15711 2.55147 3.26224 0.527122 -0.821087 -0.80102 
874 2 3.86912 1.96779 3.49141 -0.339161 -0.0929322 0.646463 
745 1 4.41146 1.89288 4.17037 0.335374 -0.662249 -0.380805 
659 1 3.46149 2.36663 4.29443 -0.658534 0.582261 -0.304226 
50 1 4.30504 2.83875 3.87528 -0.860528 0.509908 0.149708 
948 2 4.73424 2.13106 3.42292 0.0599107 0.380199 -0.0338337 
934 2 5.84323 1.96578 3.30084 1.36143 0.809169 0.415728 
139 1 5.39702 2.45028 3.87673 -0.857498 -0.89653 -0.326032 
912 2 6.2146 2.24472 4.42535 -0.56308 -0.265826 0.830199 
487 1 6.05361 3.13255 4.37499 -0.393486 -0.66117 -0.56636 
140 1 7.1623 1.62172 4.17905 -0.62941 -0.366936 0.495816 
646 1 7.36293 1.73286 3.14004 0.226757 -0.375295 0.0492337 
547 1 6.47341 2.41187 3.65539 0.0506868 0.482829 -1.06143 
567 1 6.94391 2.61239 4.67595 -0.17064 -0.021592 -0.149645 
711 1 9.2249 1.8002 3.15114 0.348405 -0.0419961 -0.22597 
804 2 9.40777 2.54348 4.42024 -0.605037 -0.243899 -0.711046 
573 1 7.85804 2.33199 4.35046 0.69488 0.340343 -0.360087 
979 2 9.24086 1.63675 3.99905 -1.28182 0.443464 0.483431 
596 1 8.82942 2.4372 3.80292 -0.314399 0.168801 0.870838 
764 1 1.14352 3.31764 3.99557 0.170372 0.305711 1.69913 
472 1 0.586383 4.22217 3.6787 -0.539948 -0.375936 0.445916 
848 2 0.605958 3.83092 4.45042 -0.091257 -0.642376 -0.373726 
691 1 0.0444703 3.3806 4.00983 -0.742437 -1.06003 -0.18538 
438 1 1.6907 4.16535 4.26705 -0.469009 0.191248 0.445169 
362 1 2.22953 3.32386 3.68328 -0.760023 -0.0963709 2.06988 
788 1 2.73404 4.26537 3.94888 0.262899 -0.278439 -0.495756 
114 1 2.64313 3.21352 4.66109 -0.725442 -0.438487 1.48197 
611 1 3.34103 3.43612 3.81923 -0.00813588 0.19662 -0.30249 
682 1 3.51928 4.39692 3.17106 -1.18101 0.807586 0.579401 
843 2 3.58947 4.51039 4.00694 0.74653 0.0919583 -0.0197518 
492 1 4.24531 3.65741 3.1449 -0.515007 0.306534 -0.368431 
856 2 3.21199 3.86689 4.62769 -0.538375 -0.120763 -0.206199 
293 1 4.43967 4.62511 3.63842 -0.353285 -0.8453 1.51036 
917 2 4.36771 3.90343 4.02951 -0.254677 -0.619046 0.843123 
133 1 4.60028 4.50672 4.69288 -1.35806 0.853016 0.28574 
960 2 5.25676 4.37329 3.67085 -0.960535 0.333887 -0.0271369 
384 1 5.09849 3.50886 3.73168 0.108891 0.917221 -0.382624 
751 1 5.5395 4.00766 4.44476 0.407581 0.0496219 -1.16294 
716 1 6.04895 4.20156 3.476 0.63934 1.18549 0.275574 
990 2 6.21052 4.6523 4.20836 0.233168 -0.796147 -0.349287 
505 1 6.7573 3.39188 3.62404 0.252554 0.260243 1.19127 
775 1 6.75923 3.96358 4.46934 0.521373 0.00542614 1.64023 
809 2 7.5814 3.96809 4.20974 0.349636 0.283527 -0.500164 
771 1 6.98228 4.6813 3.78694 -0.0150409 0.369778 1.39283 
696 1 9.40043 4.56506 4.58498 -0.112022 1.33647 0.36157 
82 1 7.87264 3.19586 3.79293 0.540877 -1.13579 -0.61151 
291 1 7.91982 4.3637 3.44393 -1.16831 -1.57938 0.808847 
904 2 8.71647 3.3508 3.62573 0.172898 0.437298 -0.292973 
551 1 8.91975 4.28021 3.45132 -0.532807 0.944032 -1.20933 
760 1 8.41426 4.05576 4.37082 -0.674004 1.00515 -0.261693 
776 1 0.108653 5.18271 3.80203 -1.00774 -0.684665 1.68659 
668 1 0.987419 4.97677 4.27007 -0.909711 0.965752 -0.2177 
675 1 0.711279 6.23974 4.08351 -0.0898998 0.573459 -0.170433 
271 1 1.45467 5.66566 3.70517 -0.251625 -0.516199 -0.753257 
558 1 1.82552 4.73309 3.422 0.703214 -0.658252 -1.3313 
187 1 2.10173 5.22289 4.34812 0.316714 0.64354 1.0941 
159 1 2.50282 6.10058 3.61284 0.66112 0.242721 -0.616675 
834 2 2.16528 6.02375 4.52238 -0.775401 0.512528 -1.01459 
705 1 3.03717 5.27805 4.08813 0.510062 -0.887342 0.714649 
916 2 3.69035 5.22932 3.41704 -0.422023 -1.31131 -0.532867 
90 1 4.15231 5.36057 4.21631 -0.931816 0.463457 0.529767 
185 1 4.43529 6.17496 3.60924 0.891743 -0.570548 -0.348666 
677 1 5.44683 4.97708 4.25813 -0.415939 0.864231 -1.00553 
888 2 4.9049 5.36393 3.66039 -0.751755 1.0242 -0.0707863 
598 1 5.35317 6.02125 4.08122 -0.51294 1.07445 -0.598462 
552 1 6.22895 6.20359 3.28017 1.08162 0.213807 0.128814 
70 1 6.3198 5.47906 3.97265 1.14867 -0.0843367 -0.0809907 
535 1 7.32917 5.61871 3.46092 -0.907661 0.474839 0.455256 
866 2 7.107 5.5726 4.27608 -0.00792153 0.254514 -0.334934 
949 2 8.70802 4.81811 4.042 -0.647624 -0.80728 0.116552 
298 1 7.89756 5.03731 4.22124 0.205165 0.86485 -0.386258 
665 1 8.52375 5.36234 3.35486 0.471391 -1.07777 0.57222 
8 1 8.00806 6.12465 4.15543 1.23111 0.132449 0.317804 
779 1 9.07075 6.12564 3.8994 -0.944886 -0.2894 -0.159867 
514 1 8.74858 5.44157 4.65744 -1.28164 -1.07692 -0.486613 
49 1 1.25076 6.52915 3.19778 0.177428 0.169794 1.12028 
575 1 0.353991 7.01092 3.5117 -0.903685 -0.394067 0.0196175 
686 1 0.932039 7.379 4.45755 0.153096 -0.616644 -0.399551 
989 2 2.02657 6.91643 3.45517 0.185874 0.627489 -1.67709 
295 1 1.66498 6.70279 4.17821 0.391493 0.16365 -0.0690428 
237 1 2.83544 7.05294 3.63064 -0.109298 -0.0433686 1.38458 
176 1 1.93047 7.74441 3.79842 -0.98281 0.116264 -0.511781 
616 1 2.88462 7.79529 4.4012 0.550493 -0.901898 -0.174289 
533 1 2.63378 6.69991 4.64219 -0.238554 -0.368278 0.236256 
502 1 3.48537 6.33258 4.06837 -0.715664 0.135425 -0.111628 
688 1 3.89422 7.20625 3.66038 0.955965 -0.384316 0.700332 
839 2 4.31666 7.20222 4.52992 0.0717984 -0.347869 -0.165053 
184 1 4.28098 6.28964 4.6415 -0.584756 0.118143 0.176133 
330 1 5.05093 6.98408 3.81752 -0.233603 -1.60374 1.39827 
620 1 6.09498 6.7519 4.33947 -1.2629 -0.444914 -0.557277 
528 1 5.81716 7.75202 3.87918 -0.226932 0.3012 0.1424 
342 1 6.55448 7.22527 3.36893 -0.386136 -1.22981 -0.46087 
479 1 7.12868 6.52098 3.89057 0.13695 -0.646669 -0.219442 
370 1 7.65029 7.42917 3.51999 -0.5925 -0.779575 0.0727039 
180 1 6.92422 7.43141 4.47733 0.48992 1.71488 -0.789544 
972 2 7.76884 7.09535 4.30947 0.635196 -0.636749 -0.313023 
628 1 9.39588 6.8471 4.56598 -0.502071 -0.0172627 -0.739326 
799 1 7.91271 6.41843 3.17925 0.206498 -0.80559 0.866836 
791 1 8.60266 7.06797 3.93349 0.860845 0.058861 0.297109 
442 1 1.33423 8.89317 3.65631 0.469963 0.26438 1.21601 
676 1 0.857036 8.00306 3.64043 0.645735 0.298221 -1.47901 
69 1 0.340752 8.71519 4.32939 0.838998 0.491199 -0.0866204 
811 2 0.381804 8.69281 3.40171 0.400853 0.473604 -0.197859 
536 1 1.34419 8.38152 4.48973 1.23401 -0.594591 0.3569 
907 2 2.07595 9.39931 3.33855 0.23174 -0.285869 0.23214 
913 2 1.73236 9.15284 4.48552 0.259531 0.321972 -0.625205 
503 1 2.99755 9.11701 3.2698 -0.266458 -0.450853 0.382774 
481 1 2.31411 8.70748 3.9162 0.0977495 -0.643574 -0.0714606 
871 2 3.12138 8.65087 4.42774 0.406052 -0.0824194 -0.344002 
355 1 3.64534 9.38613 4.08699 -0.786106 -0.803893 -0.351861 
276 1 3.18801 8.11966 3.42434 -0.550443 -0.243512 0.366308 
706 1 4.15317 8.73375 3.39582 0.515804 -1.06561 -0.658245 
618 1 3.86814 8.08383 4.29325 -0.289144 -0.316006 0.0884228 
836 2 4.53282 8.58472 4.56182 0.465671 1.07087 -0.471994 
79 1 4.73487 7.85326 3.42564 0.118318 0.570989 -0.215796 
485 1 4.9833 7.87481 4.4269 1.24086 0.15731 0.208397 
118 1 5.19389 8.6955 3.65745 0.920151 0.499871 0.194603 
357 1 6.25421 8.91678 3.94674 0.818928 0.400641 1.05476 
282 1 5.5194 8.86747 4.62759 0.138879 -0.946301 -1.00426 
971 2 6.9515 7.9224 3.14953 -0.464428 -0.73255 0.132839 
589 1 7.15439 8.29662 3.95105 -0.534525 0.349654 0.0983079 
287 1 9.06068 9.39734 4.51083 -0.0433406 0.526151 -0.626819 
569 1 9.26871 7.86262 4.09594 -1.04415 -0.773245 0.510967 
754 1 7.84503 9.12564 3.55653 0.620029 -1.27792 0.711885 
930 2 8.68815 8.63842 4.13181 -0.615187 0.75289 0.477018 
640 1 8.52503 8.26945 3.26835 -0.634711 -0.138875 0.425107 
280 1 8.98283 9.17493 3.5258 -1.17971 0.473463 0.255635 
592 1 8.16271 7.96286 4.21904 -0.414886 0.794651 1.23227 
443 1 7.95364 9.01455 4.57698 0.733201 -0.708897 0.465788 
644 1 0.975667 0.187343 4.70714 -0.0752459 -1.41803 -0.250089 
863 2 0.554152 0.990697 4.97226 0.368397 -0.248112 0.0182254 