ITEM: TIMESTEP
0
ITEM: NUMBER OF ATOMS
1000
ITEM: BOX BOUNDS pp pp pp
0.0000000000000000e+00 9.4103600000000007e+00
0.0000000000000000e+00 9.4103600000000007e+00
0.0000000000000000e+00 9.4103600000000007e+00
ITEM: ATOMS id type x y z 
256 1 1.14073 0.457135 0.514203 
343 1 0.559027 1.28695 0.897353 
277 1 0.0468463 0.293281 0.455322 
684 1 1.48408 1.37421 0.363422 
929 2 0.761001 1.10486 0.0562376 
178 1 1.71163 0.921526 1.27003 
331 1 2.59323 1.21468 0.796405 
713 1 2.73416 0.0756595 0.834285 
89 1 2.14007 0.526033 0.0241837 
837 2 3.02551 0.701653 0.12217 
413 1 3.53652 0.762041 1.27223 
687 1 3.90997 0.897903 0.363152 
950 2 4.07985 1.40308 1.48738 
501 1 4.7844 1.21128 0.787532 
218 1 5.58047 0.638899 0.330684 
982 2 4.72557 0.569294 0.12808 
156 1 5.66577 1.10722 1.19314 
47 1 6.5642 0.850486 0.70845 
789 1 7.39608 0.324254 1.14984 
33 1 7.45278 0.28998 0.138082 
328 1 9.25065 1.21698 0.084515 
196 1 7.98133 1.37866 1.13186 
630 1 8.362 0.553597 0.54552 
190 1 8.99345 1.16615 1.24852 
762 1 0.596774 1.97069 0.151375 
168 1 0.103529 2.366 0.920791 
712 1 1.19491 2.97973 0.668602 
427 1 1.13709 2.09333 1.13844 
861 2 1.38102 2.3099 0.0638738 
336 1 2.18354 2.16429 0.369705 
5 1 2.15761 2.92514 1.19726 
524 1 2.22209 1.96666 1.47289 
955 2 2.87498 2.31553 0.982307 
730 1 2.82839 2.98612 0.397095 
709 1 3.52725 1.75712 0.895611 
29 1 4.49018 2.76342 0.827567 
110 1 3.57521 3.02661 1.07791 
16 1 4.35006 1.8555 0.152253 
881 2 3.53452 2.4726 0.483331 
847 2 6.09298 1.58612 0.584709 
353 1 5.32503 2.03811 0.604448 
803 2 5.29003 2.71765 1.14464 
718 1 6.17056 3.03347 1.3329 
500 1 5.61244 3.03496 0.406682 
195 1 4.77507 1.95466 1.56833 
43 1 6.74578 1.7224 1.29508 
134 1 7.24554 1.57691 0.397289 
115 1 6.39301 2.36604 0.446921 
773 1 7.22384 2.68648 1.05635 
404 1 8.11224 2.29981 0.621239 
975 2 8.75119 1.80091 0.755117 
302 1 8.63502 2.16952 1.55464 
467 1 8.73841 3.10537 0.815397 
625 1 0.0810632 3.28286 0.11252 
484 1 0.270113 3.35705 1.1704 
478 1 1.38421 3.69979 1.53511 
480 1 0.81349 4.05163 0.72546 
891 2 1.44883 4.5394 0.43264 
30 1 1.58552 4.63048 1.22388 
96 1 1.89434 3.84154 0.521783 
727 1 2.56269 4.27033 1.23155 
852 2 2.8397 3.52252 1.0739 
556 1 2.86449 4.02752 0.279313 
607 1 3.80501 3.59968 0.290168 
770 1 3.53973 4.18697 1.18669 
303 1 4.56615 3.84778 0.860474 
821 2 5.17904 3.67874 1.43683 
437 1 5.71074 4.01505 0.881451 
169 1 4.93808 4.652 0.244142 
436 1 5.13171 4.53649 1.5522 
988 2 5.14875 3.71792 0.234119 
928 2 6.36541 3.38727 0.585408 
986 2 7.81148 3.20873 0.712991 
610 1 7.2527 3.66275 1.29023 
606 1 6.61646 4.28116 0.460741 
778 1 7.33472 3.64153 0.18148 
78 1 7.44755 4.69811 1.3325 
129 1 9.10365 4.09911 0.541331 
796 1 8.10795 4.06564 0.653095 
260 1 0.731972 4.99848 0.552235 
63 1 1.39063 5.69022 1.23307 
827 2 0.610671 5.82143 0.775165 
132 1 0.121586 5.27131 1.2401 
262 1 1.34541 5.94747 0.199915 
899 2 2.95371 5.75404 1.12759 
400 1 2.02591 5.21499 0.429001 
372 1 2.3199 5.28905 1.47291 
390 1 3.05545 5.01916 0.613172 
217 1 3.10399 5.95386 0.203982 
702 1 2.24308 6.11327 0.851705 
294 1 3.5433 5.32066 1.49151 
170 1 4.00109 5.72818 0.636139 
21 1 4.31546 4.84285 1.05842 
412 1 3.91992 4.74205 0.0824547 
299 1 5.87862 5.10271 0.980371 
434 1 4.99624 5.61814 1.02971 
631 1 5.50671 5.89342 0.205031 
179 1 6.245 6.06061 0.878132 
637 1 6.26979 5.22697 0.0300121 
37 1 6.98661 5.39618 0.892215 
316 1 7.46013 4.83795 0.174564 
28 1 7.9591 5.6628 1.01744 
850 2 9.32621 5.00155 0.377732 
715 1 8.65804 4.742 1.30764 
174 1 8.91596 5.74955 0.556312 
204 1 0.541499 6.59387 0.390249 
203 1 0.40877 7.3025 1.26286 
254 1 1.40255 7.04691 0.0143686 
230 1 1.434 6.70518 0.979295 
519 1 1.38043 7.70192 0.820868 
893 2 2.80626 6.72519 0.58931 
75 1 2.27578 7.15262 1.1688 
360 1 2.41423 7.60884 0.214075 
201 1 3.08008 6.55465 1.41261 
445 1 3.16673 7.54796 0.848907 
946 2 4.5627 6.42657 0.819738 
642 1 3.70349 6.71895 0.627353 
471 1 4.61555 7.36445 0.697768 
468 1 3.92409 7.16722 1.52555 
898 2 3.87311 7.4841 0.302709 
781 1 5.41889 6.61969 0.84305 
99 1 5.90311 7.50065 0.417024 
889 2 6.52502 6.87549 0.183047 
329 1 7.3242 6.37032 0.635961 
34 1 6.99195 7.62806 0.430099 
135 1 6.53611 6.99528 1.06876 
252 1 7.75318 7.34692 1.03252 
577 1 9.00248 6.72028 1.25303 
873 2 8.48839 7.65975 0.672311 
285 1 9.19473 7.31812 0.379131 
233 1 8.31664 6.5667 0.458626 
576 1 0.693486 9.17928 1.05269 
772 1 0.539522 8.01659 0.426964 
919 2 1.30178 8.52358 0.770971 
411 1 0.190989 8.34747 1.30398 
869 2 0.125671 8.78018 0.610723 
690 1 0.892194 8.98423 0.075224 
604 1 1.89297 9.21765 1.4444 
540 1 1.78214 9.07936 0.364055 
579 1 2.20311 8.31963 0.909967 
909 2 2.66207 8.49142 0.170791 
332 1 3.76122 9.22149 0.483462 
787 1 3.28173 8.56501 1.12676 
143 1 4.3522 8.31914 1.05589 
374 1 4.09436 9.24754 1.45639 
549 1 4.61435 8.58452 0.15178 
105 1 3.51908 8.24692 0.0554207 
810 2 5.08346 7.85659 0.206817 
106 1 4.87157 9.38173 0.739569 
650 1 6.15164 9.19308 0.912177 
489 1 5.46888 8.43313 0.8027 
830 2 5.60376 9.18624 0.181374 
914 2 6.30163 8.46982 0.458845 
609 1 6.5148 8.06578 1.21905 
356 1 7.08732 8.85969 0.619627 
938 2 7.45376 8.08804 1.28568 
543 1 7.75871 8.8685 1.54745 
429 1 7.92653 8.28082 0.566426 
828 2 7.97174 9.187 0.7709 
629 1 8.84058 8.31702 0.193535 
315 1 8.59058 8.12481 1.39203 
765 1 8.80806 9.02973 0.920249 
227 1 0.732643 0.763889 1.83303 
794 1 0.690794 1.34479 2.80442 
279 1 0.484227 0.305024 2.70991 
117 1 1.3887 1.51571 1.98303 
907 2 1.23419 0.0457794 2.85276 
226 1 1.80574 0.528179 2.29592 
874 2 2.19436 1.24475 1.98086 
56 1 2.60993 0.560434 1.77291 
636 1 2.78321 0.954514 2.70436 
376 1 1.70589 1.18604 3.08247 
542 1 3.10588 1.45806 1.83846 
583 1 4.49877 0.733378 1.7541 
401 1 3.63602 0.327531 2.28729 
296 1 4.15462 1.4861 2.42279 
97 1 4.80993 0.482087 2.73314 
714 1 5.46044 0.30359 1.80561 
206 1 5.25891 1.22066 2.20229 
235 1 6.00581 0.512962 2.56862 
497 1 5.87982 1.51527 3.08086 
983 2 6.86228 0.939087 2.70021 
397 1 6.44264 0.549817 1.69719 
216 1 6.49622 1.50622 2.20339 
323 1 7.36972 1.01516 1.90182 
994 2 7.54793 0.205932 2.09956 
646 1 7.51201 1.49189 2.84803 
375 1 7.61205 0.519121 3.03821 
240 1 9.17677 1.0674 2.381 
654 1 9.33183 0.168166 1.71646 
391 1 8.29809 0.435278 1.63019 
544 1 8.74836 0.229202 2.66096 
509 1 8.2361 1.38682 2.12601 
835 2 0.70169 2.65037 1.60912 
430 1 1.49828 2.56906 1.97744 
469 1 0.281022 1.88398 1.83224 
1 1 0.761987 2.44412 2.63921 
854 2 1.46284 1.97405 2.64169 
181 1 2.27115 1.94222 2.50429 
732 1 2.91273 2.65017 1.86686 
477 1 1.81851 2.69675 2.93034 
673 1 2.85521 2.91663 2.85012 
674 1 3.80645 2.18387 1.74115 
461 1 4.111 2.58886 2.66232 
894 2 3.90015 2.98792 1.87885 
199 1 3.21602 2.01555 2.93018 
560 1 4.90763 2.99626 1.84281 
382 1 5.77994 2.13136 1.59227 
231 1 5.04145 2.14534 2.59535 
48 1 5.78724 2.70354 2.42514 
364 1 6.68514 2.33286 2.80567 
822 2 6.5936 2.512 1.85739 
212 1 7.46015 2.99955 3.03442 
588 1 7.42461 2.15946 1.98058 
841 2 7.62385 3.12232 2.27972 
587 1 8.0687 3.06876 1.59319 
149 1 9.14894 2.90044 1.92825 
711 1 9.13426 2.00281 2.7557 
399 1 8.26351 2.44951 2.70983 
120 1 9.36309 3.06799 2.94625 
645 1 0.443359 4.27459 1.61576 
418 1 0.105678 4.39944 2.59353 
84 1 0.706486 3.37604 2.22827 
717 1 1.48492 3.67149 2.82667 
165 1 1.25086 4.52596 2.16236 
472 1 0.95318 4.65021 3.12787 
908 2 2.0733 4.22015 2.02077 
394 1 2.15839 3.34403 2.13641 
65 1 2.53863 4.01918 2.75257 
183 1 3.04564 4.66433 2.09396 
780 1 3.23208 3.64959 1.92199 
253 1 3.81148 3.54358 2.77167 
318 1 4.33991 3.86987 1.87934 
915 2 3.41961 4.33798 2.80989 
957 2 4.40573 4.13836 2.93681 
222 1 4.87335 3.41978 2.73877 
767 1 5.6992 3.68418 2.14092 
580 1 5.22989 4.55087 2.56629 
76 1 6.49107 4.20813 1.60265 
652 1 6.71043 3.2298 2.26922 
141 1 6.29834 4.37804 2.61911 
365 1 7.34736 3.96978 2.40518 
734 1 8.84111 3.8731 1.62033 
867 2 8.02132 3.99432 1.62719 
595 1 8.37924 3.53334 2.56603 
126 1 8.24511 4.53142 2.20979 
967 2 0.882331 5.10832 1.61543 
707 1 0.381559 5.33306 2.31736 
555 1 1.37441 5.57942 2.24765 
726 1 0.593661 6.19358 1.56892 
49 1 0.100774 6.16516 2.93226 
723 1 2.14721 4.97924 2.54456 
379 1 2.87713 5.85236 2.07394 
385 1 3.06489 5.16252 3.03308 
248 1 4.15797 4.83175 2.34412 
454 1 3.88668 5.79292 2.51862 
805 2 4.5069 5.36506 1.68532 
744 1 4.1837 6.15005 1.60851 
539 1 4.89996 6.23389 2.52692 
844 2 5.81309 4.72221 2.0398 
446 1 4.77671 5.34983 3.09383 
321 1 5.39201 5.50035 1.98912 
905 2 5.93608 5.95285 2.46256 
198 1 5.918 5.2834 2.93318 
420 1 7.57436 4.7369 3.03213 
963 2 7.1766 4.7686 2.18229 
72 1 6.45076 5.29592 1.83885 
571 1 6.88435 5.57462 2.67777 
171 1 7.79623 5.54266 2.15691 
581 1 7.06013 6.13258 1.65108 
855 2 9.05667 5.0131 2.09929 
207 1 8.6746 5.69959 1.74531 
283 1 8.68511 5.50073 2.72869 
736 1 0.438368 6.87328 2.29974 
335 1 1.51286 7.2944 1.88037 
626 1 1.40067 6.64968 2.75701 
3 1 1.95659 6.35814 1.82349 
681 1 2.47558 6.86975 2.5705 
634 1 3.01667 7.6434 1.87604 
937 2 4.52341 6.99317 2.36557 
741 1 3.43249 6.7555 2.33277 
338 1 3.77401 7.64732 2.59319 
161 1 4.62692 7.78917 2.09238 
4 1 5.54973 7.66873 1.57006 
407 1 4.90676 6.90343 1.6482 
229 1 5.79426 6.49097 3.07619 
286 1 5.34146 7.20621 2.54594 
173 1 5.84574 6.41286 1.74228 
342 1 6.37021 7.55257 2.25912 
594 1 6.59823 6.51437 2.39707 
406 1 7.65373 6.56033 2.56674 
269 1 7.24769 7.22814 1.89365 
479 1 7.28992 7.56802 2.9138 
548 1 8.03813 6.5189 1.58318 
853 2 8.36078 7.35615 1.64236 
458 1 8.67715 6.56872 2.35284 
605 1 9.1165 7.49329 2.09653 
160 1 8.0391 7.8257 2.31097 
799 1 8.58864 7.30689 3.0962 
845 2 8.28277 6.36668 3.12133 
647 1 0.644338 7.9807 2.21196 
313 1 0.833058 9.05314 2.02874 
274 1 0.722259 8.67664 2.99397 
664 1 1.52231 8.3324 1.64255 
933 2 2.18887 7.84365 1.70804 
785 1 2.25759 7.91729 2.60344 
997 2 3.07848 8.21745 2.6356 
358 1 2.54887 8.588 1.89364 
177 1 1.7312 8.84055 2.66202 
503 1 2.8379 9.1919 2.76558 
956 2 3.16934 9.33509 1.59908 
884 2 3.87385 8.01508 1.71212 
39 1 3.52273 8.6994 2.12061 
614 1 4.44303 8.82387 2.55279 
755 1 5.00487 8.74896 1.74646 
245 1 6.00341 8.90258 1.9508 
971 2 5.30636 9.17649 2.53791 
359 1 5.39135 8.29371 2.67616 
667 1 5.98683 9.01506 3.12744 
819 2 6.30472 8.38728 2.56101 
833 2 6.77161 9.18464 1.63818 
147 1 7.00724 8.3458 2.09929 
242 1 6.87679 9.27449 2.4688 
943 2 8.7222 8.10343 2.84574 
66 1 9.1839 8.59499 2.20787 
613 1 7.98081 8.96201 2.64321 
862 2 8.57629 9.06016 1.88111 
731 1 0.944067 0.667998 3.62132 
777 1 1.26935 0.318058 4.50885 
644 1 0.241914 0.568822 4.5425 
52 1 0.576496 1.56125 4.21617 
510 1 1.62552 1.24568 4.232 
572 1 2.1311 0.215068 3.40617 
228 1 2.3391 0.30561 4.49411 
388 1 2.53563 1.04057 3.8071 
924 2 2.65402 1.12958 4.66903 
872 2 3.13238 0.390235 3.30211 
14 1 3.64338 1.02048 3.25867 
574 1 4.48674 0.442696 4.11701 
355 1 3.45326 0.768281 4.21936 
301 1 5.5517 0.595849 3.5662 
191 1 4.80234 1.28347 3.33353 
208 1 5.37025 1.23148 4.46008 
337 1 6.15915 0.440929 4.39776 
584 1 6.39225 1.33004 3.97629 
333 1 6.63199 0.334109 3.36326 
140 1 7.5101 1.29178 3.80267 
728 1 7.22445 0.193426 4.25592 
996 2 6.96539 0.957233 4.51735 
214 1 8.43588 1.26479 3.15457 
101 1 9.36606 0.988153 3.47736 
878 2 8.96933 0.149858 3.55616 
749 1 8.39076 0.716289 4.04753 
193 1 8.91884 1.32047 4.59384 
979 2 0.316135 2.35582 3.42492 
26 1 1.15062 1.99393 3.4922 
596 1 0.44327 2.58795 4.23423 
85 1 1.13618 3.00776 3.69164 
457 1 1.35478 2.31577 4.46976 
257 1 2.24435 2.07236 3.57795 
520 1 2.38529 2.63846 4.44561 
902 2 2.17266 1.83047 4.39377 
843 2 2.9334 2.53989 3.75011 
659 1 3.27227 1.73572 4.02676 
745 1 4.30647 1.63047 4.21579 
948 2 4.08014 1.80483 3.38619 
742 1 3.7169 2.55419 3.64807 
60 1 3.42256 2.91341 4.55826 
917 2 4.30781 2.68003 4.2015 
139 1 4.72187 2.37662 3.49946 
488 1 5.74866 2.47311 3.45781 
934 2 5.3123 1.92171 3.88256 
167 1 5.06432 2.3619 4.4859 
508 1 6.0855 2.15591 4.40943 
807 2 5.16197 3.10103 3.56239 
973 2 6.63271 1.78231 3.36374 
921 2 6.39105 2.98927 3.25202 
912 2 6.79958 2.51521 4.62622 
547 1 6.98937 2.48403 3.77341 
243 1 7.21127 1.73221 4.67615 
573 1 7.82445 2.58363 4.53686 
699 1 7.91011 2.16446 3.56562 
926 2 8.15892 1.78669 4.37397 
904 2 7.91281 3.05611 3.81019 
554 1 9.00449 1.9355 3.77413 
82 1 8.74888 2.88997 3.82362 
447 1 0.72243 3.66388 4.40142 
764 1 0.389934 3.778 3.42486 
848 2 1.24467 4.07651 3.69204 
729 1 0.643447 4.60482 4.16185 
804 2 0.0222435 3.28059 4.11435 
362 1 2.11509 3.42976 3.74211 
788 1 2.82927 4.30518 3.79404 
438 1 1.68512 4.32056 4.34965 
558 1 1.88864 4.64416 3.42502 
527 1 1.60777 3.30447 4.67672 
114 1 2.63787 3.73879 4.61418 
611 1 3.23986 3.42509 3.67421 
682 1 3.95488 4.35147 3.60229 
492 1 4.35428 3.36746 3.6392 
90 1 4.63391 4.25698 4.43484 
83 1 5.74581 3.62694 3.29922 
384 1 5.02258 4.3812 3.49589 
751 1 5.39183 3.52896 4.35799 
775 1 6.12627 4.30017 4.15582 
960 2 5.84124 4.50318 3.32152 
487 1 6.34155 3.21216 4.2118 
505 1 7.32267 3.43112 4.27908 
716 1 6.73509 3.8373 3.44545 
291 1 7.20532 4.41504 4.17535 
31 1 8.65864 4.50665 3.21493 
995 2 8.84966 3.65354 3.41689 
691 1 9.03006 4.09452 4.1554 
551 1 7.87511 3.89821 3.4886 
760 1 8.36175 3.48858 4.55459 
949 2 8.14986 4.33335 4.41492 
158 1 0.969646 5.63557 3.21914 
668 1 1.33582 5.39808 4.15952 
675 1 0.369528 5.92573 3.97033 
776 1 0.0581648 5.09491 3.3595 
46 1 2.03278 5.85924 3.14394 
159 1 3.00018 6.14133 3.15899 
187 1 2.45417 5.33136 3.9628 
916 2 3.95167 5.09492 3.20573 
834 2 3.16392 5.91673 4.21391 
293 1 4.50712 5.18478 4.07332 
705 1 3.92415 5.89429 3.49746 
184 1 4.05896 6.11144 4.562 
439 1 3.43682 5.04044 4.21429 
185 1 4.84869 6.24436 3.80172 
935 2 5.16666 5.74023 4.48113 
677 1 5.62608 5.15039 3.9958 
888 2 5.52308 5.82307 3.57243 
990 2 6.37727 5.4207 4.3316 
552 1 6.46455 5.84417 3.51806 
753 1 7.75305 5.76628 3.23933 
771 1 6.64612 4.84165 3.45349 
298 1 7.25413 5.44042 4.30578 
696 1 8.98692 5.02481 4.443 
665 1 8.04642 4.95967 3.98035 
779 1 8.72293 5.80041 3.74154 
514 1 8.19837 6.01152 4.66857 
685 1 0.12909 7.79858 3.14412 
575 1 0.663179 7.00044 3.35438 
989 2 1.32896 7.38325 3.86538 
628 1 0.575592 6.91894 4.51576 
271 1 1.28494 6.48139 3.83679 
237 1 3.02705 7.5169 3.23674 
295 1 2.33773 6.29228 4.28099 
58 1 2.15836 6.97762 3.50346 
308 1 2.71805 7.57602 4.23227 
686 1 1.71929 7.16342 4.64223 
314 1 4.27316 6.82878 3.1432 
502 1 3.32146 6.71588 3.91894 
688 1 3.88202 7.5299 3.77911 
839 2 4.28079 6.84686 4.09658 
485 1 4.69002 7.68071 4.44384 
598 1 5.87218 6.31102 4.24656 
330 1 5.28516 7.22308 3.59617 
620 1 5.78276 7.36471 4.45427 
70 1 7.20613 6.47039 4.14397 
310 1 6.44582 7.00896 3.66182 
896 2 7.08091 6.51289 3.26303 
370 1 7.39543 7.55504 3.99662 
791 1 9.17618 6.7802 3.84127 
535 1 8.22627 6.8974 3.86696 
640 1 8.88846 7.80882 3.95723 
790 1 1.40974 7.90473 3.18151 
795 1 0.67288 8.05593 3.9617 
493 1 0.348642 9.27704 3.69851 
442 1 1.39883 8.97628 3.72713 
69 1 0.571347 8.90316 4.62515 
536 1 1.70342 8.08616 4.23167 
913 2 2.12169 8.85591 4.23834 
176 1 2.35825 8.41819 3.44125 
481 1 3.01964 9.12197 3.88708 
871 2 3.80162 9.36652 4.09226 
706 1 4.02029 9.38424 3.29123 
276 1 3.54324 8.43835 3.32658 
618 1 4.40713 8.65429 4.06747 
616 1 3.60284 8.2639 4.61832 
79 1 4.54695 8.05223 3.18805 
528 1 5.41478 8.30946 3.83983 
118 1 5.03892 9.10396 3.38562 
282 1 5.25804 9.20986 4.46137 
516 1 6.30064 7.99877 3.31934 
357 1 6.48234 8.90711 4.02839 
180 1 6.5534 7.96205 4.27869 
239 1 7.21998 8.67808 3.2061 
589 1 7.47223 8.61001 4.21065 
710 1 8.07115 8.11871 3.52036 
811 2 9.38101 8.49928 4.03213 
280 1 8.90585 8.74384 3.38345 
287 1 8.93038 9.22166 4.37947 
754 1 8.08797 9.24589 3.67839 
930 2 8.41583 8.54624 4.10773 
54 1 0.935579 1.16409 5.08971 
459 1 0.910461 0.0736481 5.46057 
523 1 1.86463 0.582601 5.37765 
695 1 2.36671 0.662608 6.25298 
6 1 3.06508 0.812187 5.29505 
643 1 1.92473 1.55867 5.201 
817 2 3.19172 1.06684 6.04564 
128 1 4.11185 0.802645 4.94548 
145 1 4.15112 0.755635 6.02403 
783 1 3.20109 0.0345625 6.13819 
836 2 3.69477 0.261152 5.50825 
856 2 3.53679 1.55311 4.84094 
309 1 5.02914 0.512715 5.19098 
292 1 5.5719 1.19127 5.7372 
232 1 6.06647 0.263296 5.43918 
743 1 6.27109 1.28617 5.01939 
608 1 5.14368 0.352471 6.18707 
463 1 7.20568 1.53706 5.66818 
19 1 7.68453 0.696063 6.02085 
474 1 6.58184 0.956978 6.22492 
766 1 7.03996 0.489252 5.21495 
683 1 9.39427 0.899301 5.55917 
247 1 7.90204 0.954261 4.90113 
62 1 9.34937 0.0806616 6.04374 
901 2 8.49419 1.17296 5.53353 
740 1 8.67 0.410531 5.21151 
863 2 0.558703 2.85981 5.02155 
35 1 0.328458 2.04456 5.10355 
339 1 1.23276 2.58662 5.46315 
377 1 0.565244 1.57804 6.01749 
792 1 0.20305 2.77658 5.8276 
877 2 1.27255 2.06474 6.0258 
838 2 2.14233 2.37322 5.28559 
304 1 2.88617 2.01659 5.12208 
157 1 2.15344 2.14072 6.07403 
846 2 2.79185 2.99733 5.12286 
529 1 2.06323 3.13111 5.62776 
387 1 3.17057 2.70611 5.81193 
561 1 3.76832 1.61539 5.69222 
541 1 4.05671 2.31449 4.97706 
50 1 4.79729 1.60497 5.18111 
892 2 5.6362 1.99411 5.14919 
393 1 4.90082 2.56551 5.59082 
661 1 5.81508 2.91017 5.13584 
326 1 4.73217 1.75799 6.22549 
431 1 5.70717 2.27714 6.0641 
270 1 6.5329 2.21748 5.50099 
638 1 7.48374 2.57642 5.68138 
769 1 8.81067 2.46249 4.7669 
94 1 8.10523 1.87017 5.20669 
600 1 8.46345 2.89276 5.60429 
721 1 8.92214 1.83057 5.76132 
593 1 0.825551 3.62017 5.44279 
931 2 1.06801 4.28357 4.93443 
441 1 0.0718568 4.35529 5.01233 
570 1 0.0568053 4.11216 6.00432 
119 1 0.845669 4.6736 5.61611 
361 1 2.95782 3.84313 5.57437 
146 1 2.00532 4.16781 5.39589 
402 1 3.70448 4.08113 4.71302 
793 1 3.9123 3.37541 5.4893 
249 1 4.65651 4.44437 5.59325 
340 1 4.69888 3.51283 6.1034 
133 1 4.52568 3.28834 4.75855 
703 1 3.73592 4.48903 5.92489 
910 2 5.20509 3.62662 5.40351 
11 1 5.68696 3.25578 6.18597 
371 1 5.5182 4.60588 4.89697 
490 1 6.07751 3.95029 5.47896 
809 2 6.65668 4.00504 4.81401 
615 1 6.68204 3.1791 6.26752 
567 1 6.85969 3.19926 5.17282 
373 1 7.56977 4.0928 5.13483 
211 1 6.92975 4.19989 5.95877 
172 1 7.78918 3.70419 6.05625 
999 2 7.84504 3.28046 5.25519 
108 1 9.29439 3.33854 5.03072 
886 2 9.08852 3.33981 6.16177 
697 1 8.55064 4.03138 5.47342 
801 2 8.63036 4.52323 6.25557 
311 1 0.575031 5.33548 4.86228 
747 1 1.47577 6.14452 4.83897 
657 1 0.564134 5.68104 5.85562 
824 2 0.670986 6.16046 5.10591 
475 1 2.7126 4.76702 4.8005 
939 2 1.66353 4.7992 5.8908 
213 1 1.68587 5.08268 5.02683 
566 1 1.65011 5.64734 5.95088 
7 1 2.48413 4.94694 5.89655 
859 2 3.0176 5.95264 5.741 
545 1 2.42334 5.76694 5.12936 
826 2 4.14974 4.86344 4.87587 
666 1 3.45369 5.34969 5.19728 
774 1 4.09272 6.14082 5.62461 
186 1 4.50846 5.22375 6.2377 
322 1 3.40871 5.39516 6.23895 
756 1 4.745 5.45618 5.18613 
18 1 6.06199 4.86436 5.95651 
189 1 5.80411 5.53784 5.1993 
966 2 5.28175 5.07073 5.75214 
241 1 5.08962 6.06091 5.93343 
124 1 6.18068 5.9923 6.10745 
942 2 7.3415 4.94102 5.28068 
150 1 6.56029 4.84368 4.98554 
866 2 7.46474 5.87341 5.03243 
725 1 6.99403 5.41452 5.79972 
670 1 6.6205 6.05449 5.00272 
518 1 7.89953 4.79181 6.01389 
111 1 8.13602 4.99991 4.9596 
944 2 9.03607 6.04577 5.91834 
266 1 7.9931 5.81287 5.86108 
175 1 8.96153 5.09615 5.57017 
64 1 9.2497 6.03348 4.92769 
250 1 1.20616 6.89518 5.48208 
55 1 0.215701 6.73051 5.66178 
920 2 0.359704 7.45473 5.27534 
67 1 0.695213 7.61702 6.06641 
831 2 2.51814 6.95716 4.82357 
59 1 2.18811 6.69168 5.62606 
512 1 1.92651 7.71697 5.50296 
473 1 2.62204 7.51047 6.26358 
363 1 3.07036 7.54973 5.33764 
533 1 3.23801 6.51131 5.10852 
44 1 3.32703 6.6545 6.1583 
763 1 3.87673 7.14114 4.72479 
883 2 3.90186 7.03728 5.64937 
367 1 4.70051 7.03615 5.67361 
20 1 3.7758 7.7782 6.21178 
483 1 4.92721 6.57635 4.79752 
444 1 5.96045 6.78568 5.3803 
627 1 5.31622 7.74185 5.34266 
426 1 6.71855 7.06965 4.73027 
116 1 7.13253 6.6556 5.67619 
972 2 7.07554 7.84179 4.86567 
8 1 7.74671 7.10668 4.83148 
25 1 6.38188 7.77606 5.41326 
289 1 7.90972 7.45672 5.83753 
12 1 8.78348 7.18769 4.73976 
517 1 8.51881 6.66035 5.55917 
425 1 8.98327 7.6942 5.68545 
676 1 1.0298 7.88577 4.96319 
236 1 0.341709 8.62518 5.74609 
221 1 1.38451 8.44249 5.92261 
569 1 0.0463182 8.00879 4.75449 
601 1 1.67111 8.88291 4.99893 
564 1 2.47216 9.22355 5.48058 
748 1 2.59479 8.37068 4.83524 
849 2 2.44817 8.42388 5.72128 
513 1 3.25169 9.29022 4.8769 
470 1 4.33575 8.14453 5.44343 
758 1 3.43271 8.59344 5.59776 
27 1 4.24806 9.13954 5.01819 
621 1 4.2533 9.03201 6.22157 
113 1 5.14996 8.80585 5.48267 
980 2 5.03792 8.39819 4.76931 
486 1 5.88511 8.41363 4.77342 
663 1 6.15252 8.74993 5.86982 
465 1 6.73301 8.90532 5.03129 
582 1 7.48039 8.32914 5.50542 
137 1 7.08991 9.20083 6.10423 
592 1 8.25159 8.05253 4.79056 
897 2 9.38209 9.3785 5.18365 
443 1 7.97667 9.16763 4.86965 
925 2 8.33266 8.23315 5.72559 
562 1 8.90766 8.748 5.28675 
415 1 8.16546 9.18758 5.88121 
722 1 0.926771 0.338394 6.46234 
991 2 0.0728063 0.898372 6.38521 
319 1 0.696305 1.29943 6.94468 
504 1 0.869918 0.551313 7.68266 
155 1 1.59124 1.36706 6.38423 
818 2 1.58483 1.32231 7.30868 
258 1 1.86322 0.499197 7.18451 
210 1 2.77588 0.496326 7.59485 
965 2 2.64283 0.0345635 6.77931 
163 1 2.44358 1.40699 7.05574 
41 1 4.43083 1.05717 7.06759 
324 1 3.40898 0.950943 6.82842 
977 2 3.78464 1.31634 7.53136 
802 2 5.24541 1.16746 6.48282 
13 1 5.46741 0.718446 7.19933 
865 2 6.08216 1.48135 6.71314 
432 1 6.16376 0.158914 6.67455 
405 1 6.42569 1.0246 7.39655 
341 1 7.14052 0.432444 6.89487 
814 2 7.83478 0.0315572 6.62029 
880 2 7.26758 1.29045 6.59519 
414 1 6.6762 0.0205054 7.69755 
194 1 8.65611 0.874737 6.2968 
261 1 9.3745 0.590733 7.13363 
224 1 8.04205 0.773846 7.10976 
380 1 9.16748 1.26205 7.83061 
911 2 8.63197 0.540606 7.82736 
733 1 1.07512 2.97819 6.35289 
51 1 0.463179 2.36513 6.86124 
23 1 1.45913 2.22641 6.9493 
993 2 0.148551 2.03835 7.61075 
515 1 0.929494 1.72292 7.78476 
345 1 3.04289 1.94359 6.45757 
267 1 2.44424 2.56573 7.1393 
887 2 1.92713 2.86246 6.44478 
941 2 3.83301 1.73351 6.54723 
104 1 4.02923 2.57141 6.3354 
144 1 4.37239 2.12756 7.34629 
456 1 3.35225 2.02362 7.42394 
992 2 3.28341 2.69455 6.7724 
378 1 4.20026 3.09039 7.2568 
349 1 3.1673 3.12985 7.6553 
578 1 5.32105 1.79948 7.01079 
320 1 5.05986 2.72491 6.69417 
812 2 6.13099 2.68277 6.82806 
532 1 5.24038 2.84745 7.6704 
354 1 6.23475 2.14899 7.53045 
660 1 7.33116 1.70388 7.4273 
421 1 6.86373 2.13581 6.54565 
284 1 6.91679 2.85826 7.2343 
45 1 7.83422 2.77096 6.76506 
557 1 8.82785 2.62207 6.49858 
720 1 8.02712 1.69339 6.42596 
334 1 9.17722 1.60072 6.74275 
398 1 8.4279 1.91749 7.34774 
599 1 8.60471 3.08716 7.36666 
130 1 0.1229 3.33416 6.88903 
506 1 0.932686 4.02143 6.37439 
635 1 1.51637 4.31802 7.2858 
491 1 0.790987 3.71839 7.7273 
409 1 1.52867 3.27205 7.20802 
351 1 0.46043 4.68783 7.34943 
655 1 2.03287 4.13639 6.41253 
619 1 2.65666 3.26047 6.45785 
585 1 3.06332 4.50437 6.73951 
782 1 2.46546 3.85884 7.39441 
737 1 3.59785 3.55745 6.48923 
724 1 3.58746 4.0872 7.46527 
383 1 4.46163 4.31617 6.8979 
559 1 5.3892 4.18189 6.37766 
882 2 6.15989 3.91937 6.38648 
981 2 4.93162 3.62683 6.98145 
624 1 5.33645 4.30079 7.48799 
466 1 5.9307 3.51796 7.07986 
381 1 6.34569 4.54775 7.02685 
395 1 7.15274 3.87295 6.82138 
832 2 6.90633 3.57632 7.68546 
597 1 7.06869 4.48121 7.80757 
746 1 7.77504 3.66921 7.59487 
985 2 9.37881 4.10635 6.88976 
840 2 8.00604 4.29254 6.78894 
752 1 8.56307 3.73162 6.62393 
68 1 9.19937 3.82442 7.75644 
162 1 1.15242 5.08132 6.64689 
633 1 0.659902 5.69458 7.35528 
903 2 1.29702 5.17844 7.52561 
234 1 0.0924214 5.05358 6.4674 
499 1 0.0357434 6.04408 6.60431 
215 1 1.63529 6.03111 7.13345 
962 2 2.96432 5.36203 6.94838 
131 1 2.59055 6.02164 6.4441 
591 1 2.20689 5.10959 6.87428 
87 1 2.49015 5.90187 7.64886 
419 1 2.99158 5.02968 7.81357 
964 2 4.31908 4.7818 7.80064 
798 1 3.93594 5.16671 7.122 
121 1 3.39666 6.0985 7.11575 
202 1 4.36927 6.16292 6.75069 
669 1 4.83091 5.43532 7.62168 
102 1 5.41514 5.20405 6.76571 
122 1 5.99714 5.22573 7.73174 
885 2 5.2643 6.11197 6.73592 
662 1 6.02415 6.0692 7.1127 
875 2 6.57549 5.4515 6.68353 
2 1 7.24536 4.92066 6.81571 
617 1 7.1928 5.96594 6.57984 
494 1 6.85705 5.56794 7.52711 
268 1 8.84263 4.71398 7.23389 
648 1 7.87259 6.26396 7.3582 
700 1 8.24732 5.42457 6.77391 
9 1 8.88316 5.77532 7.55185 
498 1 0.906222 6.46442 6.40379 
86 1 0.374025 6.66387 7.70077 
961 2 0.764032 7.32651 6.85916 
366 1 1.41583 7.11345 7.43659 
820 2 1.74784 6.39061 6.34324 
347 1 2.28153 6.7867 7.03729 
786 1 1.61906 7.27609 6.47253 
918 2 3.05002 6.71435 7.68603 
526 1 2.27163 7.83913 7.22043 
112 1 4.16005 6.33642 7.77174 
142 1 3.27661 7.33699 7.08391 
246 1 4.2601 7.14154 6.90856 
947 2 3.91035 7.60532 7.51693 
38 1 5.35531 6.94441 6.46411 
808 2 5.86483 6.95933 7.1973 
346 1 5.08582 6.68312 7.42241 
24 1 5.31927 7.67518 7.24818 
325 1 6.50779 6.87608 6.52698 
88 1 7.53858 6.9094 6.68189 
701 1 6.87554 6.64412 7.4598 
368 1 6.45535 7.6207 7.34229 
951 2 7.83044 7.1291 7.48581 
622 1 7.07795 7.80166 6.4064 
148 1 8.52394 6.4539 6.53975 
422 1 9.38412 7.10759 6.56942 
223 1 8.70701 6.89765 7.38809 
842 2 8.9817 7.67097 7.54328 
565 1 8.49511 7.50351 6.67686 
813 2 0.721494 8.55638 6.47766 
17 1 1.21058 9.01634 7.25261 
521 1 0.234026 9.05215 6.98376 
71 1 1.32453 8.05777 6.91536 
42 1 0.127666 8.08302 7.11242 
952 2 0.608384 8.6066 7.79933 
22 1 1.85028 9.1995 6.40196 
107 1 2.71749 8.54496 6.55099 
550 1 2.32659 8.99304 7.47754 
496 1 3.24336 8.35761 7.39029 
278 1 3.59957 9.3665 7.04531 
525 1 4.28132 8.2956 7.02062 
922 2 3.59308 8.57444 6.48769 
653 1 4.63875 9.33794 7.10965 
641 1 5.95717 7.86354 6.35705 
433 1 4.90268 7.86795 6.27785 
602 1 5.36152 8.72917 6.52984 
998 2 4.95065 8.54805 7.475 
735 1 5.67292 8.98629 7.47608 
272 1 7.48961 7.91611 7.28736 
98 1 6.57233 8.53465 7.02971 
651 1 7.6266 9.06765 7.41318 
708 1 7.8138 8.50755 6.48416 
36 1 8.65555 9.30383 6.87279 
138 1 8.88699 8.43391 6.34708 
857 2 9.13205 8.69994 7.48835 
125 1 8.46724 8.31425 7.36584 
945 2 0.664279 0.296793 9.02438 
428 1 0.390666 1.0545 8.61561 
408 1 1.36238 0.676859 8.83747 
352 1 0.0482126 0.0707005 8.01952 
987 2 2.83088 1.34824 7.86987 
306 1 1.98693 1.0188 8.06997 
369 1 2.76172 0.785561 8.6137 
553 1 2.15207 1.51836 8.97443 
164 1 3.12217 1.51471 9.37806 
495 1 3.83792 0.563283 7.96051 
153 1 3.60908 0.43878 8.96312 
300 1 4.50988 0.954948 8.8892 
40 1 4.66929 1.45943 7.99273 
738 1 4.80313 0.401531 7.93007 
959 2 5.8592 0.33725 7.89126 
563 1 5.6804 1.26431 8.11771 
219 1 5.25166 1.55556 9.13502 
288 1 5.51426 0.344866 8.7178 
74 1 6.45183 0.11582 9.37639 
348 1 6.28997 1.30168 9.18268 
192 1 7.46472 0.607788 7.95479 
127 1 6.47651 0.60319 8.44451 
531 1 7.33638 1.0284 8.90476 
692 1 6.76583 1.55446 8.27038 
350 1 8.2279 1.23084 8.22137 
906 2 8.01411 0.326846 8.71282 
205 1 8.25406 1.46998 9.18832 
154 1 8.84383 0.519705 8.71537 
890 2 8.98389 1.50384 8.67139 
410 1 1.07749 2.77038 7.99058 
678 1 1.16494 1.74537 8.78762 
759 1 0.208642 2.13731 8.63493 
423 1 0.975598 2.85196 9.03282 
482 1 0.0365773 2.8536 7.89665 
305 1 1.95836 2.00429 7.95517 
312 1 2.83742 2.13163 8.37755 
978 2 2.1192 2.50897 8.7111 
590 1 2.90935 3.11239 8.68723 
936 2 2.8439 2.36546 9.26028 
632 1 2.1843 3.02166 8.04712 
761 1 4.54256 3.04657 9.24577 
151 1 3.77665 1.64671 8.39122 
823 2 3.80602 2.70712 8.11669 
91 1 3.67579 2.4562 8.99602 
225 1 4.66052 2.32107 8.61759 
671 1 6.23603 3.04006 8.10678 
984 2 5.18679 2.45229 9.21692 
940 2 5.31169 2.07407 8.02749 
603 1 5.93491 2.14842 8.63643 
864 2 6.75153 2.09712 9.11389 
537 1 7.31908 2.68752 9.36541 
612 1 7.50213 2.04465 8.63663 
970 2 6.83017 2.45217 8.1106 
739 1 7.6834 2.65619 7.8785 
238 1 8.97867 2.25376 9.38533 
816 2 8.12078 2.30772 9.18288 
932 2 9.09848 2.96865 8.78067 
317 1 8.60861 2.26589 8.4304 
719 1 8.27268 3.1317 9.3432 
200 1 1.15016 3.92832 9.13737 
152 1 0.297863 3.52536 8.61303 
396 1 0.989038 4.65182 8.29846 
829 2 0.183581 4.56165 8.18379 
507 1 0.273626 4.5486 9.04556 
534 1 1.9587 3.21658 9.11361 
327 1 1.71116 3.89631 8.29719 
220 1 2.04058 4.47191 9.13102 
679 1 2.72699 4.04491 8.42468 
806 2 4.65872 3.19313 8.32011 
968 2 3.42143 3.97192 9.02858 
462 1 3.83082 3.43883 8.49114 
538 1 4.63916 3.92827 8.95704 
297 1 3.7836 4.44932 8.36692 
546 1 4.53849 3.92479 7.93882 
974 2 5.46359 3.60023 7.9153 
476 1 5.40574 3.26825 8.74273 
123 1 5.7814 4.24823 9.14777 
656 1 6.07393 4.13569 8.20765 
750 1 5.08776 4.6995 8.45808 
15 1 6.45967 3.28986 9.08676 
450 1 7.20191 3.43919 8.48775 
698 1 6.80558 4.34188 8.86335 
188 1 7.90204 4.10897 8.83943 
73 1 8.88892 3.90316 8.95485 
275 1 8.42031 3.30886 8.32584 
273 1 1.2233 5.16666 9.08864 
568 1 0.276249 5.43737 8.26562 
209 1 1.37246 5.63688 8.2006 
797 1 0.257698 5.69307 9.26357 
92 1 2.03652 4.78573 8.05202 
136 1 2.25131 5.65507 8.74093 
440 1 3.06315 4.98308 8.91244 
251 1 3.08908 6.17942 8.37466 
658 1 4.56426 5.56344 9.24676 
858 2 4.34436 4.88212 8.78085 
1000 2 3.69442 5.44929 9.08823 
244 1 3.8619 5.45017 8.21667 
825 2 4.69293 5.81701 8.43663 
876 2 5.49214 5.09301 9.15378 
77 1 5.49575 5.67774 8.58356 
895 2 6.18573 5.09392 8.57279 
704 1 6.76345 6.0565 9.23676 
61 1 6.3606 6.03757 8.21727 
460 1 7.10733 5.31898 8.66261 