ITEM: TIMESTEP
0
ITEM: NUMBER OF ATOMS
1000
ITEM: BOX BOUNDS pp pp pp
0.0 28.8675
0.0 28.8675
-1.0 1.0
ITEM: ATOMS id type x y z
386 1 1.36679 0.980018 0.0
279 1 0.350761 0.916203 0.0
277 1 0.922216 0.0413768 0.0
644 1 2.20919 0.416448 0.0
442 1 2.36996 1.43537 0.0
779 2 2.93128 0.854994 0.0
504 1 4.11223 0.533289 0.0
601 1 3.17111 0.03782 0.0
777 2 5.16192 0.450797 0.0
228 1 4.67997 1.39444 0.0
408 1 5.73824 1.11657 0.0
699 2 6.48557 0.662969 0.0
210 1 7.00071 1.40522 0.0
389 1 7.38031 0.437197 0.0
759 2 8.08446 0.100988 0.0
724 2 7.88071 1.17135 0.0
182 1 8.65317 0.70185 0.0
757 2 9.59724 0.289403 0.0
511 1 9.56262 1.14466 0.0
481 1 10.4448 0.690989 0.0
470 1 11.3796 0.2421 0.0
722 2 11.1817 1.23308 0.0
513 1 12.0979 0.981829 0.0
153 1 12.879 0.324081 0.0
815 2 13.015 1.19486 0.0
574 1 13.7731 0.865359 0.0
145 1 14.7622 0.382289 0.0
800 2 15.2454 1.04999 0.0
97 1 15.767 0.380334 0.0
309 1 17.0373 1.3303 0.0
928 2 16.1902 1.12603 0.0
914 2 16.7444 0.521703 0.0
898 2 17.7109 0.827549 0.0
156 1 18.5543 0.529134 0.0
127 1 17.4275 0.050289 0.0
74 1 19.2909 1.22737 0.0
715 2 19.5595 0.396764 0.0
239 1 20.2992 0.796105 0.0
137 1 21.2111 0.320687 0.0
47 1 21.2378 1.36103 0.0
36 1 22.084 0.834268 0.0
33 1 22.9598 0.309489 0.0
751 2 22.8343 1.30168 0.0
803 2 24.1435 0.495955 0.0
463 1 23.6393 1.15947 0.0
825 2 24.6079 1.25778 0.0
443 1 25.1042 0.446369 0.0
761 2 25.8723 0.822599 0.0
315 1 26.6272 0.352256 0.0
101 1 26.6092 1.37802 0.0
154 1 27.5496 0.922373 0.0
819 2 28.3641 0.797305 0.0
261 1 28.7371 0.0210749 0.0
214 1 0.685245 1.83261 0.0
933 2 0.973859 2.68501 0.0
35 1 0.0882839 2.70337 0.0
54 1 1.61683 2.09098 0.0
226 1 2.4117 2.75262 0.0
623 1 3.60274 1.45935 0.0
959 2 2.95361 2.09675 0.0
523 1 4.23216 2.26374 0.0
540 1 3.41932 2.85866 0.0
56 1 5.44461 2.1125 0.0
720 2 5.0382 2.82251 0.0
806 2 6.23024 1.80304 0.0
6 1 6.67877 2.57285 0.0
306 1 7.62134 2.1395 0.0
22 1 8.63941 1.70728 0.0
572 1 8.51662 2.73913 0.0
542 1 9.56604 2.24868 0.0
312 1 10.5426 1.80367 0.0
355 1 10.4181 2.88019 0.0
827 2 11.2008 2.79165 0.0
14 1 11.5551 2.01586 0.0
128 1 12.5857 2.01252 0.0
561 1 13.5655 1.89731 0.0
16 1 14.3236 2.62079 0.0
296 1 13.2152 2.86799 0.0
106 1 14.515 1.60466 0.0
501 1 15.5729 1.82951 0.0
697 2 15.1741 2.64079 0.0
821 2 16.4455 2.05047 0.0
301 1 17.0182 2.74462 0.0
13 1 18.2346 1.56819 0.0
833 2 17.4779 2.04239 0.0
219 1 18.1449 2.69174 0.0
486 1 20.1936 1.87879 0.0
353 1 19.0688 2.25923 0.0
405 1 20.9835 2.40617 0.0
584 1 22.168 1.94422 0.0
843 2 23.3129 2.13954 0.0
196 1 24.3484 2.09739 0.0
630 1 25.3434 1.59005 0.0
857 2 25.0908 2.46592 0.0
224 1 25.8185 2.8826 0.0
918 2 26.0444 2.079 0.0
193 1 26.8737 2.52721 0.0
459 1 28.4966 1.66515 0.0
929 2 27.4713 1.80002 0.0
391 1 27.8571 2.54195 0.0
238 1 0.155455 3.72014 0.0
951 2 0.907862 4.13086 0.0
227 1 1.31549 3.4297 0.0
668 2 2.14241 3.55669 0.0
328 1 2.93694 3.83439 0.0
774 2 3.79019 3.89827 0.0
23 1 4.44979 3.35233 0.0
257 1 5.74586 3.26969 0.0
663 2 5.23857 3.88509 0.0
155 1 4.5256 4.30173 0.0
117 1 6.72776 3.63675 0.0
837 2 6.16307 4.32778 0.0
510 1 7.65078 3.1791 0.0
430 1 8.49395 3.75432 0.0
524 1 7.67094 4.27226 0.0
324 1 9.46249 3.31827 0.0
910 2 10.3494 3.73895 0.0
181 1 11.2229 3.669 0.0
80 1 12.1162 2.96802 0.0
495 1 12.2269 4.01053 0.0
687 2 13.9928 3.38807 0.0
41 1 13.2419 3.94964 0.0
369 1 14.2854 4.16702 0.0
300 1 15.0059 3.46579 0.0
979 2 15.7479 3.94189 0.0
332 1 15.9579 2.95192 0.0
191 1 16.6264 3.70652 0.0
208 1 17.5719 3.59884 0.0
43 1 19.9329 2.89183 0.0
216 1 18.8038 3.60159 0.0
897 2 19.6512 3.67859 0.0
547 1 20.4754 4.02881 0.0
341 1 21.6294 3.14643 0.0
846 2 20.8085 3.27718 0.0
664 2 21.3478 4.01227 0.0
134 1 22.6668 2.91839 0.0
646 1 22.1906 4.00433 0.0
874 2 23.0704 3.72791 0.0
350 1 23.8016 2.93237 0.0
573 1 23.8944 3.93846 0.0
398 1 24.8284 3.29164 0.0
247 1 25.7964 3.91993 0.0
795 2 26.5325 3.39338 0.0
380 1 27.4025 3.44748 0.0
140 1 26.7252 4.25483 0.0
756 2 28.2802 3.26608 0.0
240 1 28.0296 4.18453 0.0
891 2 0.0378136 4.54195 0.0
493 1 0.808157 4.98336 0.0
982 2 0.329583 5.63008 0.0
221 1 1.77775 4.41701 0.0
776 2 1.64952 5.24206 0.0
108 1 2.40613 5.53436 0.0
864 2 2.64217 4.67498 0.0
52 1 3.53467 4.70711 0.0
447 1 4.0974 5.70459 0.0
949 2 3.23573 5.60775 0.0
923 2 4.79395 5.10335 0.0
258 1 5.51162 4.72408 0.0
423 1 5.34755 5.76706 0.0
863 2 6.03279 5.38067 0.0
427 1 6.7321 4.91686 0.0
876 2 7.16672 5.67295 0.0
643 1 7.94865 5.24053 0.0
786 2 8.56388 4.5976 0.0
520 1 9.43995 4.34347 0.0
693 2 9.85976 5.14791 0.0
163 1 9.11598 5.39169 0.0
413 1 10.4324 4.54974 0.0
89 1 10.6193 5.53412 0.0
164 1 11.4267 4.78179 0.0
199 1 12.4635 5.02225 0.0
110 1 11.7597 5.76572 0.0
388 1 13.5267 4.92135 0.0
944 2 14.3007 5.11358 0.0
292 1 15.1231 4.64357 0.0
791 2 15.4627 5.36003 0.0
206 1 17.2022 4.61569 0.0
225 1 16.1933 4.79182 0.0
508 1 17.0358 5.60913 0.0
497 1 18.2934 4.5371 0.0
832 2 17.8223 5.30598 0.0
762 2 18.9158 5.1785 0.0
500 1 19.4698 4.53027 0.0
563 1 19.6199 5.67028 0.0
348 1 20.4238 5.08052 0.0
192 1 21.392 4.85481 0.0
530 1 22.5233 5.46929 0.0
531 1 23.125 4.55862 0.0
778 2 23.3722 5.39928 0.0
505 1 24.1195 4.95153 0.0
714 2 24.6836 5.60427 0.0
588 1 24.9199 4.38546 0.0
205 1 25.4511 5.36672 0.0
836 2 26.0616 4.7204 0.0
509 1 26.5316 5.48774 0.0
428 1 27.4769 5.01111 0.0
149 1 28.4685 5.29767 0.0
377 1 1.14591 6.02126 0.0
858 2 1.19132 6.89688 0.0
865 2 0.452137 6.4773 0.0
688 2 1.97494 6.30574 0.0
596 1 2.03091 7.1286 0.0
178 1 2.91008 6.49238 0.0
26 1 3.93543 6.67159 0.0
704 2 4.74684 6.34732 0.0
469 1 5.68427 6.76667 0.0
376 1 6.4355 6.09849 0.0
869 2 6.57435 6.89682 0.0
590 1 7.34215 6.48867 0.0
96 1 8.39055 6.23495 0.0
978 2 7.99726 7.09855 0.0
866 2 9.23455 6.35802 0.0
553 1 10.0922 6.47093 0.0
752 2 10.9865 6.36039 0.0
798 2 12.5362 7.18556 0.0
104 1 12.5783 6.34284 0.0
304 1 11.6425 7.00826 0.0
195 1 13.6133 5.97302 0.0
878 2 14.2336 6.49087 0.0
331 1 13.4223 6.96496 0.0
345 1 14.77 5.79347 0.0
40 1 14.9334 6.93142 0.0
29 1 16.0361 5.97111 0.0
652 2 15.9108 6.80766 0.0
231 1 16.7114 6.69415 0.0
784 2 17.5863 6.29437 0.0
48 1 18.4386 5.9319 0.0
972 2 18.3405 6.81575 0.0
139 1 17.6217 7.18386 0.0
809 2 19.1593 6.39989 0.0
834 2 19.929 6.70614 0.0
320 1 21.6244 5.85425 0.0
382 1 20.5802 6.11453 0.0
672 2 21.2749 6.60562 0.0
115 1 20.6699 7.21477 0.0
578 1 22.102 6.75305 0.0
603 1 23.0428 6.3613 0.0
354 1 24.0499 6.09165 0.0
666 2 24.4113 6.95926 0.0
302 1 25.031 6.36931 0.0
82 1 25.7656 7.13516 0.0
946 2 25.869 6.12306 0.0
612 1 26.5832 6.48385 0.0
740 2 27.3597 6.92205 0.0
950 2 28.4302 6.17393 0.0
554 1 27.596 6.04401 0.0
190 1 28.2031 6.9988 0.0
1 1 1.21936 7.77604 0.0
515 1 0.347676 7.31916 0.0
317 1 0.315037 8.36563 0.0
727 2 1.19894 8.60395 0.0
841 2 2.03896 7.98899 0.0
685 2 2.81432 7.44716 0.0
168 1 2.74685 8.34923 0.0
305 1 3.62534 7.6713 0.0
871 2 3.64075 8.50192 0.0
339 1 4.78818 7.2295 0.0
971 2 5.44922 7.95206 0.0
409 1 4.52655 8.20213 0.0
457 1 6.24187 7.65754 0.0
157 1 7.23329 7.50606 0.0
702 2 8.10627 8.01933 0.0
527 1 7.4668 8.48771 0.0
998 2 9.67115 7.25266 0.0
456 1 8.81604 7.29236 0.0
696 2 9.18924 8.12838 0.0
711 2 10.0931 8.01891 0.0
916 2 10.7078 7.23721 0.0
492 1 10.9913 7.98382 0.0
461 1 12.5413 8.04899 0.0
991 2 11.7484 8.3916 0.0
894 2 13.3602 7.84794 0.0
706 2 14.178 7.37168 0.0
541 1 14.3291 8.23716 0.0
907 2 15.1531 7.77289 0.0
167 1 15.3879 8.62067 0.0
653 2 16.8597 7.60395 0.0
488 1 15.9598 7.71035 0.0
657 2 16.5511 8.46658 0.0
956 2 18.3217 7.73599 0.0
1000 2 17.4884 8.16496 0.0
91 1 18.2468 8.59326 0.0
364 1 19.0742 7.27358 0.0
671 2 19.0333 8.21991 0.0
730 2 19.8881 7.60315 0.0
94 1 20.4395 8.1992 0.0
188 1 21.6039 7.83292 0.0
831 2 21.1481 8.6552 0.0
404 1 22.6333 7.54517 0.0
820 2 22.4337 8.3407 0.0
284 1 23.5789 7.27633 0.0
691 2 23.2276 8.0467 0.0
537 1 24.0137 8.33681 0.0
638 1 24.836 7.64938 0.0
319 1 25.8997 8.15183 0.0
51 1 26.7527 7.57423 0.0
334 1 26.8568 8.59924 0.0
829 2 27.5804 7.83341 0.0
996 2 28.5063 7.80795 0.0
557 1 28.1079 8.55378 0.0
888 2 0.824907 9.39348 0.0
410 1 0.209593 9.97 0.0
570 1 1.69084 9.29198 0.0
856 2 2.50962 9.13963 0.0
593 1 2.44898 10.0068 0.0
200 1 3.33919 9.40847 0.0
713 2 3.98209 9.94841 0.0
477 1 4.32298 9.14948 0.0
85 1 4.93709 9.88774 0.0
529 1 5.36124 8.86336 0.0
478 1 6.44398 8.7109 0.0
327 1 5.91816 9.71461 0.0
267 1 7.02789 9.62979 0.0
877 2 7.87402 9.40135 0.0
349 1 8.47667 8.85941 0.0
805 2 9.36136 8.9639 0.0
151 1 8.997 9.76286 0.0
851 2 9.93764 9.71315 0.0
336 1 10.178 8.86765 0.0
945 2 11.0049 8.83968 0.0
378 1 10.9327 9.66651 0.0
860 2 12.6082 8.88134 0.0
144 1 11.8844 9.27817 0.0
222 1 12.8591 9.74288 0.0
50 1 13.4205 8.7089 0.0
908 2 13.7495 9.47917 0.0
384 1 14.5764 9.34085 0.0
656 2 15.4414 9.64228 0.0
474 1 16.2051 9.24316 0.0
771 2 16.6819 9.94465 0.0
326 1 17.1822 9.10638 0.0
790 2 17.9763 9.43508 0.0
974 2 18.7831 9.99233 0.0
742 2 19.8014 8.70723 0.0
962 2 18.8941 9.14326 0.0
919 2 19.6845 9.66602 0.0
421 1 20.4971 9.37657 0.0
814 2 21.3361 9.66769 0.0
270 1 21.9479 9.03959 0.0
662 2 22.6024 9.56999 0.0
76 1 23.0578 8.88335 0.0
939 2 24.2371 9.13184 0.0
659 2 23.5156 9.63594 0.0
212 1 24.3505 10.0152 0.0
600 1 24.9822 8.69932 0.0
736 2 25.0641 9.53485 0.0
482 1 25.9269 9.20602 0.0
399 1 26.884 9.74889 0.0
859 2 28.7509 9.16055 0.0
782 2 27.5125 9.14386 0.0
595 1 27.9928 9.80086 0.0
441 1 1.2749 10.2428 0.0
68 1 0.399107 11.0207 0.0
467 1 1.36981 11.2835 0.0
625 1 2.44972 10.9636 0.0
472 1 3.42244 10.5982 0.0
484 1 4.41887 10.8886 0.0
146 1 5.45995 10.7872 0.0
5 1 6.48865 10.6684 0.0
970 2 8.24782 10.2215 0.0
619 1 7.56185 10.6661 0.0
758 2 8.07712 11.3386 0.0
632 1 8.7448 10.86 0.0
362 1 9.73801 10.509 0.0
921 2 9.59914 11.3733 0.0
842 2 10.548 10.5238 0.0
538 1 11.3184 10.6747 0.0
402 1 10.4327 11.3167 0.0
765 2 11.2746 11.5213 0.0
673 2 12.0901 10.2049 0.0
340 1 12.2965 11.0484 0.0
303 1 13.8303 10.286 0.0
767 2 13.0115 10.6032 0.0
883 2 14.3262 11.0313 0.0
60 1 13.5467 11.2985 0.0
560 1 14.8866 10.3474 0.0
684 2 15.4399 11.0968 0.0
133 1 15.9177 10.3437 0.0
431 1 16.2169 11.3414 0.0
532 1 17.0825 10.7201 0.0
476 1 17.9994 10.2907 0.0
83 1 17.9547 11.372 0.0
824 2 18.6869 10.8889 0.0
243 1 19.4782 10.5164 0.0
823 2 19.9123 11.228 0.0
739 2 20.3735 10.3868 0.0
466 1 20.7617 11.1999 0.0
760 2 21.3303 10.5586 0.0
849 2 22.2041 10.4161 0.0
365 1 21.8379 11.2946 0.0
754 2 22.6965 11.13 0.0
567 1 23.0604 10.3671 0.0
682 2 23.8435 10.641 0.0
172 1 23.4673 11.4836 0.0
599 1 24.5412 11.2054 0.0
890 2 25.0882 10.3935 0.0
45 1 25.6059 11.0195 0.0
942 2 26.0456 10.11 0.0
120 1 26.5919 10.8387 0.0
875 2 27.4662 10.4568 0.0
835 2 28.432 10.4897 0.0
491 1 27.8205 11.1991 0.0
881 2 0.686012 11.8136 0.0
396 1 1.31737 12.3644 0.0
587 1 0.121115 12.45 0.0
654 2 2.12503 11.7618 0.0
119 1 2.42828 12.5271 0.0
418 1 4.11653 11.8221 0.0
162 1 3.11579 11.739 0.0
480 1 3.50011 12.7232 0.0
220 1 5.1477 11.8312 0.0
698 2 4.37509 12.6803 0.0
737 2 5.71276 12.4143 0.0
394 1 6.19563 11.7231 0.0
975 2 6.76167 12.3864 0.0
534 1 7.22562 11.6002 0.0
30 1 7.89896 12.34 0.0
387 1 8.87436 12.8386 0.0
462 1 8.84527 11.8165 0.0
253 1 9.80531 12.3633 0.0
439 1 10.8686 12.3006 0.0
985 2 11.411 12.9538 0.0
559 1 11.8712 12.0535 0.0
708 2 12.6652 11.7825 0.0
293 1 12.3455 12.9027 0.0
297 1 13.2477 12.4054 0.0
992 2 14.0088 12.0478 0.0
249 1 14.1872 12.907 0.0
393 1 14.8535 11.7498 0.0
785 2 14.991 12.5584 0.0
318 1 15.7502 12.1987 0.0
948 2 17.0897 11.5608 0.0
437 1 16.7358 12.2941 0.0
546 1 17.8 12.3695 0.0
855 2 18.6363 12.3243 0.0
624 1 19.1258 11.6676 0.0
123 1 19.3631 12.7923 0.0
873 2 20.1662 12.9814 0.0
615 1 20.1443 12.0585 0.0
813 2 21.2063 11.9376 0.0
15 1 21.0282 12.8254 0.0
792 2 22.8571 12.0197 0.0
597 1 22.0288 12.3064 0.0
952 2 22.651 12.8901 0.0
799 2 24.1522 11.9652 0.0
610 1 23.5254 12.552 0.0
551 1 24.6104 12.6771 0.0
717 2 25.0729 11.9047 0.0
73 1 25.6975 12.5745 0.0
845 2 26.0677 11.7983 0.0
506 1 26.9632 11.7291 0.0
995 2 26.5507 12.5104 0.0
291 1 27.9218 12.2073 0.0
679 2 28.63 11.7017 0.0
130 1 0.868781 13.2773 0.0
234 1 0.68096 14.3432 0.0
651 2 1.7353 13.1111 0.0
31 1 1.72332 14.0792 0.0
311 1 2.61491 13.6476 0.0
789 2 3.39601 13.6343 0.0
158 1 4.23672 13.5487 0.0
372 1 5.15411 13.0876 0.0
645 1 5.57552 14.0418 0.0
361 1 6.23703 13.0957 0.0
818 2 6.72508 13.7895 0.0
84 1 7.2512 13.1415 0.0
828 2 8.13376 13.3971 0.0
438 1 7.56417 14.1125 0.0
419 1 8.80404 13.8856 0.0
676 2 9.54683 13.3666 0.0
607 1 9.89318 14.1954 0.0
611 1 10.4822 13.2865 0.0
114 1 11.5115 13.8099 0.0
880 2 10.7187 14.0943 0.0
900 2 12.3849 13.8503 0.0
383 1 13.1851 13.4851 0.0
11 1 14.143 14.1951 0.0
807 2 13.2957 14.2669 0.0
371 1 15.091 13.4461 0.0
381 1 15.8069 14.3015 0.0
637 1 16.1104 13.2678 0.0
934 2 16.6554 13.9109 0.0
189 1 17.2249 13.2616 0.0
580 1 18.3825 13.1714 0.0
725 2 17.9033 13.8735 0.0
316 1 18.6238 14.328 0.0
994 2 19.1239 13.7069 0.0
211 1 19.9868 13.7937 0.0
198 1 20.972 14.0121 0.0
487 1 21.9317 13.3806 0.0
940 2 22.4882 13.9592 0.0
840 2 23.9459 13.2237 0.0
395 1 23.2204 13.585 0.0
732 2 23.7978 14.1559 0.0
78 1 24.6098 13.7861 0.0
909 2 25.2234 13.2794 0.0
275 1 25.6522 14.0462 0.0
896 2 26.1509 13.2894 0.0
518 1 27.2115 13.0114 0.0
57 1 26.7239 13.921 0.0
152 1 28.7595 13.6283 0.0
690 2 28.0788 13.1621 0.0
633 1 27.7921 14.0057 0.0
628 1 0.0451253 15.2365 0.0
674 2 0.958508 15.2655 0.0
585 1 1.88424 15.1495 0.0
853 2 2.54593 14.575 0.0
507 1 3.41222 14.4519 0.0
49 1 2.97292 15.4046 0.0
781 2 3.85577 15.1554 0.0
165 1 4.5867 14.4817 0.0
351 1 5.61126 15.1707 0.0
294 1 4.61514 15.5396 0.0
591 1 6.45803 14.6072 0.0
741 2 6.44113 15.4488 0.0
379 1 7.3178 15.1784 0.0
558 1 8.33149 14.8535 0.0
183 1 8.10387 15.8639 0.0
248 1 9.11946 15.5442 0.0
955 2 9.1701 14.6405 0.0
766 2 9.92365 15.1336 0.0
65 1 10.7926 15.063 0.0
169 1 12.474 14.687 0.0
989 2 11.6279 14.6109 0.0
390 1 11.7752 15.5101 0.0
744 2 12.666 15.4719 0.0
18 1 13.4171 15.0765 0.0
658 2 14.3351 15.1348 0.0
838 2 14.9044 14.5086 0.0
446 1 15.2705 15.3331 0.0
726 2 16.4419 14.8182 0.0
124 1 16.2647 15.6349 0.0
958 2 17.1238 15.5069 0.0
122 1 17.3513 14.5714 0.0
887 2 18.1954 15.0198 0.0
72 1 17.9104 15.8087 0.0
852 2 19.4342 14.5915 0.0
450 1 19.0739 15.347 0.0
854 2 19.8539 15.6464 0.0
606 1 20.2049 14.9007 0.0
867 2 21.1231 14.9899 0.0
494 1 21.7089 15.6285 0.0
373 1 21.8931 14.6138 0.0
954 2 22.4726 15.2735 0.0
28 1 23.0652 14.5843 0.0
969 2 23.3463 15.5786 0.0
522 1 23.9832 14.9541 0.0
981 2 24.9983 14.7871 0.0
460 1 24.6672 15.7221 0.0
111 1 25.6667 15.3504 0.0
701 2 26.2169 14.6342 0.0
268 1 27.0052 14.9719 0.0
810 2 27.3781 15.8023 0.0
879 2 28.5799 14.5035 0.0
568 1 27.9467 15.0531 0.0
635 1 0.566053 16.0934 0.0
126 1 0.413906 17.213 0.0
705 2 1.53381 15.9438 0.0
129 1 2.35409 16.1818 0.0
273 1 1.47958 16.7641 0.0
213 1 2.39999 17.2919 0.0
967 2 3.06584 16.6258 0.0
260 1 3.81218 16.0702 0.0
187 1 3.75178 17.1183 0.0
385 1 4.73603 16.6246 0.0
976 2 5.51158 16.9981 0.0
3 1 5.82037 16.2154 0.0
159 1 7.11594 16.2889 0.0
112 1 6.38354 17.0609 0.0
850 2 7.83239 16.6807 0.0
539 1 8.64202 16.7899 0.0
893 2 9.46462 16.3014 0.0
464 1 9.80051 17.0998 0.0
731 2 11.0901 16.0045 0.0
412 1 10.2502 15.9661 0.0
186 1 10.8721 16.8122 0.0
90 1 11.9179 16.5139 0.0
816 2 12.7341 16.3561 0.0
436 1 12.6301 17.2238 0.0
920 2 13.4846 15.8893 0.0
241 1 13.5301 16.7321 0.0
38 1 14.3545 16.0196 0.0
917 2 14.578 16.8672 0.0
77 1 15.3513 16.3953 0.0
738 2 16.1898 16.4561 0.0
70 1 17.0276 16.3956 0.0
299 1 16.2164 17.3055 0.0
694 2 17.8865 16.6647 0.0
102 1 18.7164 16.9856 0.0
862 2 18.7272 16.1067 0.0
37 1 19.6408 16.437 0.0
490 1 20.634 15.9036 0.0
329 1 20.5855 16.9445 0.0
150 1 21.5799 16.666 0.0
571 1 22.6688 16.1721 0.0
649 1 23.7868 16.2972 0.0
905 2 24.6194 16.5269 0.0
648 1 25.5589 16.4857 0.0
984 2 26.4244 16.9114 0.0
175 1 26.449 16.0763 0.0
514 1 27.3317 16.8466 0.0
283 1 28.2625 17.2089 0.0
448 1 28.1283 16.1242 0.0
936 2 0.707074 17.9789 0.0
63 1 1.55317 17.8597 0.0
886 2 2.40451 18.3296 0.0
46 1 3.28997 18.0983 0.0
912 2 4.09041 18.1644 0.0
295 1 4.72164 17.5936 0.0
244 1 4.82089 18.7238 0.0
322 1 5.61477 17.8064 0.0
21 1 6.65444 18.0426 0.0
184 1 7.42981 17.4021 0.0
556 1 7.63111 18.3814 0.0
92 1 8.54428 17.7764 0.0
170 1 9.55024 18.0934 0.0
440 1 10.6481 17.8519 0.0
454 1 11.6846 17.53 0.0
453 1 12.6132 18.2033 0.0
367 1 11.6032 18.5691 0.0
977 2 13.3347 17.7518 0.0
433 1 13.7755 18.6051 0.0
179 1 14.1518 17.606 0.0
346 1 15.1897 17.5303 0.0
185 1 14.7662 18.469 0.0
444 1 15.8671 18.3696 0.0
746 2 17.1371 17.3328 0.0
483 1 16.9129 18.1445 0.0
631 1 17.935 17.6979 0.0
750 2 17.6588 18.5586 0.0
266 1 18.5479 18.5896 0.0
931 2 18.8543 17.8402 0.0
148 1 19.6463 17.4851 0.0
535 1 19.5595 18.5431 0.0
2 1 20.4661 18.1065 0.0
141 1 21.4252 17.688 0.0
233 1 21.1899 18.7576 0.0
171 1 22.519 17.3592 0.0
406 1 22.1984 18.3435 0.0
716 2 23.0375 18.0295 0.0
420 1 23.5902 17.4088 0.0
594 1 23.5441 18.6415 0.0
986 2 24.1525 18.0544 0.0
548 1 24.6691 17.3724 0.0
695 2 25.1278 18.1558 0.0
499 1 25.7281 17.4998 0.0
207 1 26.7686 17.7378 0.0
794 2 26.1336 18.2463 0.0
872 2 26.9586 18.5711 0.0
215 1 28.7034 18.1508 0.0
964 2 27.711 17.8516 0.0
403 1 27.8397 18.7596 0.0
132 1 0.68807 18.8113 0.0
700 2 1.15808 19.6721 0.0
86 1 0.311374 19.8235 0.0
87 1 1.73965 18.924 0.0
749 2 2.10662 19.7338 0.0
555 1 2.72359 19.0829 0.0
817 2 3.45976 19.8118 0.0
136 1 3.7537 19.0178 0.0
904 2 5.32786 19.6736 0.0
201 1 4.51517 19.7839 0.0
7 1 5.8277 18.8885 0.0
121 1 6.8922 19.0798 0.0
579 1 6.19523 19.8446 0.0
400 1 8.01868 19.3211 0.0
626 1 7.23757 20.0861 0.0
735 2 9.77203 18.9056 0.0
434 1 8.92905 18.9049 0.0
407 1 9.67982 19.7371 0.0
533 1 8.69521 20.0334 0.0
142 1 10.6758 19.058 0.0
796 2 10.5887 19.906 0.0
743 2 11.5454 19.5125 0.0
675 2 12.9809 18.9675 0.0
32 1 12.3882 19.5689 0.0
246 1 13.4955 19.5891 0.0
229 1 14.6132 19.5765 0.0
655 2 15.3886 19.0862 0.0
922 2 15.3734 19.9809 0.0
4 1 16.113 19.618 0.0
999 2 16.5595 18.8994 0.0
321 1 17.2468 19.3482 0.0
930 2 18.249 19.3624 0.0
61 1 19.1475 19.5822 0.0
581 1 20.2744 19.3481 0.0
801 2 21.2239 19.6838 0.0
298 1 22.0573 19.4146 0.0
745 2 22.7931 19.071 0.0
174 1 23.477 19.6374 0.0
753 2 24.4436 19.6873 0.0
269 1 24.5669 18.8191 0.0
902 2 25.4707 18.9271 0.0
517 1 25.3492 19.7329 0.0
990 2 26.3036 19.245 0.0
64 1 27.1156 19.52 0.0
289 1 26.3361 20.1375 0.0
770 2 28.7348 19.0698 0.0
9 1 28.0967 19.6876 0.0
67 1 0.552727 20.8298 0.0
953 2 1.28197 21.2386 0.0
209 1 1.61785 20.4276 0.0
203 1 2.15186 21.275 0.0
569 1 2.72323 20.3827 0.0
780 2 3.0734 21.1975 0.0
271 1 3.73175 20.647 0.0
575 1 3.96328 21.6473 0.0
230 1 5.42971 20.5281 0.0
960 2 4.58939 20.7356 0.0
335 1 4.99727 21.4789 0.0
783 2 6.42694 20.6692 0.0
58 1 6.02532 21.4083 0.0
475 1 7.03801 21.2043 0.0
75 1 8.03398 20.8459 0.0
870 2 8.57102 21.4602 0.0
344 1 9.17712 20.9067 0.0
173 1 10.1822 20.6724 0.0
217 1 11.2374 20.5629 0.0
733 2 11.3197 21.5217 0.0
95 1 12.178 21.283 0.0
963 2 12.0925 20.4025 0.0
665 2 13.1023 21.4186 0.0
502 1 13.0636 20.5052 0.0
830 2 14.0586 20.237 0.0
314 1 13.8941 21.1247 0.0
468 1 14.8157 20.5965 0.0
24 1 15.8696 20.6758 0.0
997 2 15.7649 21.613 0.0
426 1 16.8478 20.3328 0.0
325 1 16.6301 21.3315 0.0
598 1 17.8819 20.211 0.0
913 2 17.4735 20.9284 0.0
116 1 18.5386 21.1776 0.0
689 2 18.7185 20.3734 0.0
617 1 19.5714 20.6171 0.0
822 2 19.3437 21.4935 0.0
342 1 20.6234 20.353 0.0
88 1 20.2574 21.3998 0.0
926 2 21.0863 21.2082 0.0
135 1 21.6364 20.4577 0.0
755 2 22.5282 20.2652 0.0
34 1 22.4093 21.076 0.0
723 2 23.2566 21.5775 0.0
479 1 23.3414 20.6746 0.0
204 1 24.066 21.3704 0.0
452 1 24.5724 20.4844 0.0
710 2 25.5392 20.5711 0.0
223 1 25.0926 21.5466 0.0
12 1 26.0604 21.2221 0.0
677 2 26.9773 21.1808 0.0
592 1 27.3614 20.4594 0.0
458 1 28.4075 20.7235 0.0
425 1 27.7395 21.5592 0.0
55 1 0.944755 22.0314 0.0
422 1 1.05219 23.0466 0.0
577 1 0.0852632 22.7265 0.0
566 1 1.93802 22.3888 0.0
131 1 2.92862 22.0587 0.0
262 1 3.72651 22.7493 0.0
647 1 4.69074 22.4642 0.0
250 1 5.75289 22.3576 0.0
980 2 6.37128 22.9238 0.0
308 1 6.84041 22.1935 0.0
924 2 7.6194 21.8037 0.0
545 1 8.31275 22.2862 0.0
769 2 7.52948 22.7281 0.0
634 1 9.39296 21.9678 0.0
932 2 9.06815 22.7167 0.0
202 1 10.3394 21.6518 0.0
642 1 10.1064 22.6377 0.0
237 1 11.162 22.3351 0.0
734 2 11.9723 22.1049 0.0
255 1 12.7842 22.2464 0.0
586 1 12.0421 23.0044 0.0
549 1 13.804 22.1233 0.0
485 1 14.6169 22.7536 0.0
451 1 14.9012 21.6842 0.0
286 1 15.6791 22.4414 0.0
627 1 16.7138 22.513 0.0
310 1 17.6333 21.7793 0.0
368 1 18.5679 22.2022 0.0
608 1 17.7221 22.7986 0.0
25 1 19.6497 22.2366 0.0
892 2 19.1992 22.9745 0.0
8 1 20.8224 22.2707 0.0
166 1 21.6831 21.8132 0.0
622 1 21.7595 22.8508 0.0
613 1 22.6741 22.1597 0.0
764 2 22.6122 23.0006 0.0
370 1 23.673 22.3584 0.0
100 1 24.4413 23.0511 0.0
935 2 24.5194 22.179 0.0
424 1 25.3334 22.6172 0.0
988 2 26.0013 22.0522 0.0
589 1 26.875 22.0222 0.0
66 1 26.3506 22.8951 0.0
703 2 27.1894 22.9732 0.0
259 1 28.7879 21.7593 0.0
290 1 27.9406 22.5956 0.0
811 2 0.38846 23.6301 0.0
236 1 1.21373 24.079 0.0
411 1 0.23907 24.4675 0.0
366 1 2.63789 23.1155 0.0
718 2 1.77861 23.4679 0.0
498 1 2.42878 24.1011 0.0
254 1 3.50507 23.7884 0.0
536 1 4.46072 23.4747 0.0
812 2 5.33144 23.1042 0.0
839 2 5.13252 24.0293 0.0
313 1 5.98663 23.671 0.0
81 1 7.0099 23.4505 0.0
503 1 7.01875 24.5199 0.0
847 2 7.67702 23.9725 0.0
263 1 8.18605 23.3354 0.0
709 2 8.74888 24.1063 0.0
360 1 9.2695 23.5208 0.0
748 2 11.0646 23.2019 0.0
44 1 10.3095 23.6536 0.0
445 1 11.3427 24.031 0.0
797 2 10.5464 24.4916 0.0
281 1 12.7587 23.8371 0.0
27 1 13.4982 23.1183 0.0
987 2 13.6001 24.0274 0.0
338 1 14.3847 23.7959 0.0
99 1 15.376 23.412 0.0
618 1 15.2136 24.4738 0.0
660 2 16.2444 23.1854 0.0
528 1 17.019 23.5325 0.0
680 2 16.8961 24.4305 0.0
650 1 16.1635 24.0749 0.0
552 1 18.4922 23.4937 0.0
330 1 17.7397 24.2727 0.0
416 1 20.1207 23.1336 0.0
641 1 19.4152 23.8909 0.0
903 2 20.9776 23.1099 0.0
414 1 20.4249 24.098 0.0
272 1 21.5131 23.8817 0.0
582 1 22.6135 23.9145 0.0
465 1 23.5255 23.4846 0.0
775 2 23.34 24.3508 0.0
957 2 24.2683 23.8897 0.0
280 1 25.1383 23.7949 0.0
793 2 25.9392 23.597 0.0
640 1 26.0294 24.5337 0.0
160 1 26.7948 23.8554 0.0
968 2 27.6515 23.9265 0.0
605 1 28.4011 23.6206 0.0
802 2 0.968611 24.9477 0.0
53 1 0.526001 25.7108 0.0
562 1 1.55559 25.5451 0.0
884 2 1.8176 24.7045 0.0
274 1 2.5855 25.2202 0.0
670 2 3.24016 24.6193 0.0
512 1 3.59391 25.3852 0.0
519 1 4.22765 24.5942 0.0
768 2 5.01899 25.0456 0.0
576 1 5.69824 25.6763 0.0
71 1 4.57306 25.839 0.0
358 1 5.93094 24.6753 0.0
961 2 6.56257 25.2695 0.0
449 1 7.28808 25.6607 0.0
347 1 8.08028 24.6966 0.0
496 1 8.30764 25.8304 0.0
721 2 8.90363 25.0627 0.0
363 1 9.61385 24.557 0.0
550 1 9.34457 25.886 0.0
525 1 10.2409 25.3876 0.0
39 1 11.2109 25.0256 0.0
276 1 12.1454 24.6336 0.0
614 1 11.9966 25.7376 0.0
773 2 12.7788 25.4716 0.0
602 1 14.3147 24.898 0.0
435 1 13.2352 24.7554 0.0
848 2 13.6933 25.5206 0.0
787 2 15.0373 25.3816 0.0
471 1 15.9431 25.2068 0.0
489 1 17.0447 25.2605 0.0
429 1 18.7015 24.5622 0.0
282 1 18.0596 25.3588 0.0
609 1 19.6937 24.896 0.0
669 2 18.9154 25.4182 0.0
98 1 19.7454 25.9532 0.0
93 1 21.0924 24.8264 0.0
728 2 20.4179 25.4023 0.0
620 1 21.0197 25.9597 0.0
788 2 21.9287 24.5801 0.0
180 1 21.9111 25.4989 0.0
10 1 22.7384 24.9427 0.0
729 2 22.8171 25.7903 0.0
937 2 23.534 25.2167 0.0
242 1 24.2571 24.7341 0.0
899 2 24.699 25.5513 0.0
925 2 25.1156 24.6459 0.0
417 1 25.536 25.5026 0.0
941 2 26.3867 25.3039 0.0
103 1 27.07 24.8239 0.0
712 2 27.2277 25.6651 0.0
252 1 28.0779 24.6769 0.0
692 2 28.7906 25.1995 0.0
565 1 28.0937 25.6886 0.0
42 1 1.18967 26.5987 0.0
521 1 0.358263 27.2331 0.0
661 2 0.120232 26.4322 0.0
629 1 2.22906 26.3871 0.0
868 2 1.86677 27.2779 0.0
352 1 2.97506 27.2338 0.0
719 2 3.09991 26.2123 0.0
59 1 3.87765 26.5973 0.0
17 1 4.83492 27.05 0.0
927 2 5.29919 26.384 0.0
176 1 6.0224 26.8197 0.0
681 2 6.4528 26.1064 0.0
251 1 7.03743 26.7117 0.0
772 2 7.87343 26.5454 0.0
636 1 8.36131 27.2702 0.0
895 2 7.53881 27.3997 0.0
763 2 8.77924 26.5154 0.0
374 1 9.5868 26.9003 0.0
808 2 10.1515 26.2462 0.0
616 1 10.9675 26.0158 0.0
473 1 10.7407 27.0197 0.0
401 1 11.7357 26.7238 0.0
826 2 12.501 26.4207 0.0
105 1 13.3046 26.3688 0.0
901 2 14.0721 26.8215 0.0
161 1 14.3783 25.9872 0.0
20 1 15.4651 26.0787 0.0
583 1 14.864 27.0053 0.0
686 2 15.7285 26.9624 0.0
118 1 16.5254 26.257 0.0
218 1 16.5602 27.335 0.0
197 1 17.6419 26.2375 0.0
683 2 17.3322 27.0082 0.0
245 1 18.1823 27.104 0.0
356 1 18.6576 26.25 0.0
147 1 19.49 26.9321 0.0
678 2 20.3465 26.6451 0.0
337 1 21.1539 26.9904 0.0
455 1 22.0293 26.5103 0.0
415 1 23.0417 26.6035 0.0
938 2 23.7878 26.0966 0.0
844 2 23.9098 26.9492 0.0
543 1 24.622 26.4448 0.0
707 2 25.0753 27.166 0.0
947 2 25.5002 26.3057 0.0
138 1 25.9544 27.0859 0.0
285 1 26.3611 26.1099 0.0
125 1 27.2423 26.5624 0.0
943 2 26.7174 27.2721 0.0
62 1 28.2102 26.8401 0.0
69 1 1.2513 27.8975 0.0
911 2 0.433019 28.1029 0.0
747 2 1.70285 28.6073 0.0
343 1 2.34739 28.0498 0.0
993 2 3.17803 28.051 0.0
885 2 3.9241 28.4535 0.0
256 1 3.95732 27.6055 0.0
107 1 4.74541 28.5542 0.0
177 1 5.63598 27.7554 0.0
564 1 5.97205 28.7982 0.0
906 2 6.89766 28.5894 0.0
604 1 6.65298 27.7613 0.0
526 1 7.69602 28.2146 0.0
278 1 8.74223 28.5183 0.0
983 2 9.17547 27.684 0.0
264 1 9.76759 28.2858 0.0
882 2 10.5474 28.7618 0.0
667 2 10.1356 27.5732 0.0
79 1 11.0032 28.0536 0.0
143 1 12.5679 27.4352 0.0
861 2 11.6624 27.5998 0.0
307 1 12.1211 28.4339 0.0
966 2 12.9526 28.2135 0.0
359 1 13.5913 27.5958 0.0
288 1 13.8502 28.6213 0.0
639 1 14.5646 27.9987 0.0
516 1 15.707 27.8381 0.0
889 2 15.1901 28.5582 0.0
621 1 16.5419 28.3868 0.0
235 1 17.4598 27.8599 0.0
333 1 18.3892 28.3966 0.0
973 2 18.8602 27.6658 0.0
109 1 19.3978 28.3593 0.0
113 1 20.295 27.5886 0.0
232 1 20.3572 28.6422 0.0
397 1 21.2608 28.0075 0.0
392 1 22.2563 27.4528 0.0
965 2 22.8521 28.3676 0.0
357 1 22.0491 28.6426 0.0
323 1 23.8242 28.5769 0.0
375 1 23.2715 27.605 0.0
432 1 24.3786 27.7166 0.0
915 2 25.7942 28.7351 0.0
804 2 24.7421 28.5207 0.0
19 1 25.4067 27.9678 0.0
194 1 26.4615 28.1211 0.0
544 1 27.4415 27.6653 0.0
265 1 27.6939 28.7566 0.0
287 1 28.4324 27.9382 0.0
ITEM: TIMESTEP
5000
ITEM: NUMBER OF ATOMS
1000
ITEM: BOX BOUNDS pp pp pp
0.0 28.8675
0.0 28.8675
-1.0 1.0
ITEM: ATOMS id type x y z
386 1 1.29999 1.04116 0.0
279 1 0.217892 0.940835 0.0
644 1 1.87967 0.123678 0.0
442 1 2.26998 1.12664 0.0
779 2 3.06933 0.749024 0.0
504 1 3.86951 0.570411 0.0
777 2 4.8045 0.56136 0.0
408 1 5.54582 1.03133 0.0
228 1 4.54011 1.34173 0.0
699 2 6.34966 0.820716 0.0
389 1 7.19482 0.635318 0.0
210 1 6.85213 1.61851 0.0
759 2 7.95899 0.132613 0.0
724 2 7.65583 1.42083 0.0
182 1 8.2402 0.87583 0.0
757 2 8.92407 0.172759 0.0
511 1 9.27374 0.996962 0.0
481 1 10.0735 0.387145 0.0
722 2 10.8506 0.832604 0.0
470 1 11.1921 0.0727814 0.0
513 1 11.9506 0.709031 0.0
153 1 12.7993 0.100825 0.0
815 2 12.9271 1.00705 0.0
574 1 13.802 0.647586 0.0
800 2 15.2711 1.03106 0.0
97 1 15.8339 0.317894 0.0
145 1 14.7816 0.295833 0.0
309 1 17.0393 1.27177 0.0
928 2 16.1605 1.05584 0.0
914 2 16.732 0.296515 0.0
898 2 17.8442 0.995173 0.0
156 1 18.6941 0.540727 0.0
127 1 17.6193 0.155317 0.0
74 1 19.3924 1.40082 0.0
715 2 19.5956 0.600135 0.0
239 1 20.3789 0.900814 0.0
137 1 21.3763 0.414787 0.0
47 1 21.2638 1.47832 0.0
36 1 22.2218 1.04612 0.0
33 1 23.1659 0.694758 0.0
803 2 24.0884 0.764121 0.0
323 1 24.0233 28.7037 0.0
443 1 24.9066 0.448892 0.0
761 2 25.6666 1.06167 0.0
915 2 25.7361 0.0340905 0.0
315 1 26.3456 0.576989 0.0
154 1 27.4317 1.02854 0.0
819 2 28.2245 0.698351 0.0
261 1 28.6501 28.7912 0.0
214 1 0.557283 1.89562 0.0
933 2 1.02309 2.75348 0.0
54 1 1.57965 2.11048 0.0
959 2 2.51596 2.07294 0.0
623 1 3.32051 1.61507 0.0
523 1 4.11286 2.25626 0.0
540 1 3.12899 2.7238 0.0
56 1 5.19505 2.16919 0.0
720 2 4.71017 2.86277 0.0
806 2 5.99795 1.70332 0.0
6 1 6.27468 2.48529 0.0
306 1 7.51584 2.59003 0.0
22 1 8.34651 1.95014 0.0
572 1 8.6543 2.94269 0.0
542 1 9.42799 2.09447 0.0
312 1 10.2184 1.401 0.0
355 1 10.4408 2.4082 0.0
14 1 11.282 1.55963 0.0
827 2 11.3945 2.39788 0.0
128 1 12.4521 1.72821 0.0
561 1 13.4956 1.71199 0.0
16 1 14.1776 2.485 0.0
296 1 13.1413 2.71836 0.0
106 1 14.5454 1.46781 0.0
501 1 15.6211 1.77096 0.0
697 2 14.987 2.30615 0.0
332 1 15.9057 2.74788 0.0
821 2 16.482 2.00926 0.0
301 1 17.0499 2.59774 0.0
13 1 18.3666 1.595 0.0
833 2 17.6046 1.91821 0.0
219 1 18.2524 2.60051 0.0
353 1 19.2512 2.43041 0.0
486 1 20.2734 1.91333 0.0
405 1 21.1757 2.47143 0.0
751 2 22.9344 1.60782 0.0
584 1 22.2664 2.18247 0.0
463 1 23.821 1.56636 0.0
843 2 23.4625 2.39595 0.0
196 1 24.4207 2.38026 0.0
825 2 24.7327 1.32554 0.0
630 1 25.3433 1.93715 0.0
857 2 25.1032 2.8003 0.0
101 1 26.3966 1.57788 0.0
918 2 26.0896 2.36536 0.0
193 1 26.9243 2.76957 0.0
929 2 27.3842 1.96298 0.0
459 1 28.2693 1.714 0.0
391 1 28.0387 2.79138 0.0
35 1 0.186501 2.93991 0.0
238 1 0.234575 3.93526 0.0
227 1 1.27604 3.65842 0.0
226 1 2.106 3.00639 0.0
668 2 2.06357 3.88941 0.0
328 1 2.91421 3.74163 0.0
774 2 3.63943 4.09687 0.0
23 1 4.06482 3.39673 0.0
257 1 5.56996 3.24041 0.0
663 2 4.83939 3.73949 0.0
117 1 6.76803 3.31434 0.0